ITEM: TIMESTEP
0
ITEM: NUMBER OF ATOMS
6
ITEM: BOX BOUNDS pp pp pp
-2.5000000000000000e+01 2.5000000000000000e+01
-2.0000000000000000e+01 2.0000000000000000e+01
-2.0000000000000000e+01 2.0000000000000000e+01
ITEM: ATOMS id type xs ys zs
5 1 0.0132901 0.112409 0.353483
1 2 0.676335 0.593158 0.343017
4 1 0.828793 0.295669 0.475166
6 1 0.78933 0.374985 0.788345
2 1 0.719147 0.0628805 0.915057
3 1 0.732012 0.679289 0.883043
ITEM: TIMESTEP
1000000
ITEM: NUMBER OF ATOMS
6
ITEM: BOX BOUNDS pp pp pp
-2.5000000000000000e+01 2.5000000000000000e+01
-2.0000000000000000e+01 2.0000000000000000e+01
-2.0000000000000000e+01 2.0000000000000000e+01
ITEM: ATOMS id type xs ys zs
1 2 0.0156377 0.486507 0.506382
4 1 0.767592 0.248654 0.576986
3 1 0.965013 0.918919 0.638053
5 1 0.049894 0.585819 0.717233
2 1 0.894951 0.47196 0.930174
6 1 -0.00409786 0.322525 0.968744
ITEM: TIMESTEP
2000000
ITEM: NUMBER OF ATOMS
6
ITEM: BOX BOUNDS pp pp pp
-2.5000000000000000e+01 2.5000000000000000e+01
-2.0000000000000000e+01 2.0000000000000000e+01
-2.0000000000000000e+01 2.0000000000000000e+01
ITEM: ATOMS id type xs ys zs
6 1 0.183704 0.367773 0.103697
3 1 0.0507757 0.289984 0.265952
4 1 0.0852024 0.449646 0.296463
1 2 0.0424668 0.492791 0.491944
5 1 0.159283 0.756936 0.833897
2 1 0.172336 0.550986 0.931351
ITEM: TIMESTEP
3000000
ITEM: NUMBER OF ATOMS
6
ITEM: BOX BOUNDS pp pp pp
-2.5000000000000000e+01 2.5000000000000000e+01
-2.0000000000000000e+01 2.0000000000000000e+01
-2.0000000000000000e+01 2.0000000000000000e+01
ITEM: ATOMS id type xs ys zs
5 1 0.25945 0.460176 0.373983
1 2 0.0710727 0.49376 0.501356
2 1 0.978959 0.789393 0.516017
3 1 0.863751 0.815764 0.614149
4 1 0.212686 0.0911379 0.98787
6 1 0.920356 0.73291 0.931389
ITEM: TIMESTEP
4000000
ITEM: NUMBER OF ATOMS
6
ITEM: BOX BOUNDS pp pp pp
-2.5000000000000000e+01 2.5000000000000000e+01
-2.0000000000000000e+01 2.0000000000000000e+01
-2.0000000000000000e+01 2.0000000000000000e+01
ITEM: ATOMS id type xs ys zs
3 1 0.827646 0.187691 0.522419
1 2 0.0760426 0.509046 0.476854
6 1 0.658936 0.688237 0.554252
5 1 0.177698 0.553215 0.786856
2 1 0.135704 0.203217 0.909643
4 1 0.975266 0.756306 0.848929
ITEM: TIMESTEP
5000000
ITEM: NUMBER OF ATOMS
6
ITEM: BOX BOUNDS pp pp pp
-2.5000000000000000e+01 2.5000000000000000e+01
-2.0000000000000000e+01 2.0000000000000000e+01
-2.0000000000000000e+01 2.0000000000000000e+01
ITEM: ATOMS id type xs ys zs
2 1 0.675886 0.147758 0.0713233
6 1 0.0823581 0.35247 0.368335
1 2 0.0811751 0.488867 0.47723
5 1 0.00146686 0.738678 0.580503
4 1 0.0775365 0.149263 0.698659
3 1 0.120296 0.766707 0.912852
ITEM: TIMESTEP
6000000
ITEM: NUMBER OF ATOMS
6
ITEM: BOX BOUNDS pp pp pp
-2.5000000000000000e+01 2.5000000000000000e+01
-2.0000000000000000e+01 2.0000000000000000e+01
-2.0000000000000000e+01 2.0000000000000000e+01
ITEM: ATOMS id type xs ys zs
2 1 0.981353 0.914254 0.0372086
6 1 0.157882 0.0640167 0.354355
4 1 0.906422 0.395064 0.386861
1 2 0.0927501 0.494809 0.517025
5 1 0.106574 0.330039 0.760483
3 1 0.934999 0.35897 0.012426
ITEM: TIMESTEP
7000000
ITEM: NUMBER OF ATOMS
6
ITEM: BOX BOUNDS pp pp pp
-2.5000000000000000e+01 2.5000000000000000e+01
-2.0000000000000000e+01 2.0000000000000000e+01
-2.0000000000000000e+01 2.0000000000000000e+01
ITEM: ATOMS id type xs ys zs
4 1 0.0332653 0.205402 0.468718
2 1 0.712311 0.125745 0.433736
1 2 0.121063 0.493045 0.493974
6 1 0.92961 0.693245 0.55486
5 1 0.833351 0.622469 0.544004
3 1 0.0536449 0.826051 0.848305
ITEM: TIMESTEP
8000000
ITEM: NUMBER OF ATOMS
6
ITEM: BOX BOUNDS pp pp pp
-2.5000000000000000e+01 2.5000000000000000e+01
-2.0000000000000000e+01 2.0000000000000000e+01
-2.0000000000000000e+01 2.0000000000000000e+01
ITEM: ATOMS id type xs ys zs
2 1 0.840049 0.0332818 0.22366
5 1 0.0564706 0.521585 0.391095
1 2 0.151662 0.49819 0.518535
4 1 0.00443593 0.667391 0.48064
3 1 0.903099 0.131406 0.638082
6 1 0.773275 0.43603 0.634397
ITEM: TIMESTEP
9000000
ITEM: NUMBER OF ATOMS
6
ITEM: BOX BOUNDS pp pp pp
-2.5000000000000000e+01 2.5000000000000000e+01
-2.0000000000000000e+01 2.0000000000000000e+01
-2.0000000000000000e+01 2.0000000000000000e+01
ITEM: ATOMS id type xs ys zs
6 1 0.801215 0.483795 0.0715446
4 1 0.914279 0.133173 0.357323
5 1 0.891679 0.491186 0.453306
1 2 0.164617 0.520059 0.507283
3 1 0.87492 0.149498 0.548518
2 1 0.0980732 0.332326 0.741009
ITEM: TIMESTEP
10000000
ITEM: NUMBER OF ATOMS
6
ITEM: BOX BOUNDS pp pp pp
-2.5000000000000000e+01 2.5000000000000000e+01
-2.0000000000000000e+01 2.0000000000000000e+01
-2.0000000000000000e+01 2.0000000000000000e+01
ITEM: ATOMS id type xs ys zs
2 1 0.325635 0.271449 0.237178
5 1 0.0321553 0.464476 0.307228
1 2 0.176498 0.501907 0.501898
3 1 0.905092 0.471901 0.578584
6 1 0.819824 0.515432 0.595695
4 1 0.962317 0.0484797 0.988941
ITEM: TIMESTEP
11000000
ITEM: NUMBER OF ATOMS
6
ITEM: BOX BOUNDS pp pp pp
-2.5000000000000000e+01 2.5000000000000000e+01
-2.0000000000000000e+01 2.0000000000000000e+01
-2.0000000000000000e+01 2.0000000000000000e+01
ITEM: ATOMS id type xs ys zs
2 1 0.760462 0.832412 0.0247484
4 1 0.121532 0.244082 0.140011
5 1 0.900458 0.28059 0.393816
1 2 0.190698 0.510814 0.510395
3 1 0.95735 0.610152 0.668332
6 1 0.884879 0.624018 0.734866
ITEM: TIMESTEP
12000000
ITEM: NUMBER OF ATOMS
6
ITEM: BOX BOUNDS pp pp pp
-2.5000000000000000e+01 2.5000000000000000e+01
-2.0000000000000000e+01 2.0000000000000000e+01
-2.0000000000000000e+01 2.0000000000000000e+01
ITEM: ATOMS id type xs ys zs
5 1 0.970198 0.963121 0.105587
4 1 0.75064 0.11414 0.329047
1 2 0.197559 0.514023 0.500672
6 1 0.978719 0.185839 0.666045
3 1 0.0518514 0.988763 0.721686
2 1 0.927932 0.907391 0.697416
ITEM: TIMESTEP
13000000
ITEM: NUMBER OF ATOMS
6
ITEM: BOX BOUNDS pp pp pp
-2.5000000000000000e+01 2.5000000000000000e+01
-2.0000000000000000e+01 2.0000000000000000e+01
-2.0000000000000000e+01 2.0000000000000000e+01
ITEM: ATOMS id type xs ys zs
6 1 0.767943 0.553921 0.398988
1 2 0.217483 0.504719 0.480226
2 1 0.196476 0.310033 0.63069
3 1 0.0375472 0.537897 0.729391
4 1 0.181258 0.969528 0.681831
5 1 0.137664 0.0403827 0.940729
ITEM: TIMESTEP
14000000
ITEM: NUMBER OF ATOMS
6
ITEM: BOX BOUNDS pp pp pp
-2.5000000000000000e+01 2.5000000000000000e+01
-2.0000000000000000e+01 2.0000000000000000e+01
-2.0000000000000000e+01 2.0000000000000000e+01
ITEM: ATOMS id type xs ys zs
4 1 0.0561087 0.0941743 0.102747
6 1 0.773526 0.755096 0.196841
5 1 0.911133 0.865835 0.174375
3 1 0.644122 0.454746 0.428599
1 2 0.245323 0.512503 0.488438
2 1 0.231695 0.521989 0.682073
ITEM: TIMESTEP
15000000
ITEM: NUMBER OF ATOMS
6
ITEM: BOX BOUNDS pp pp pp
-2.5000000000000000e+01 2.5000000000000000e+01
-2.0000000000000000e+01 2.0000000000000000e+01
-2.0000000000000000e+01 2.0000000000000000e+01
ITEM: ATOMS id type xs ys zs
3 1 0.131269 0.287391 0.159123
5 1 -0.00666011 0.317819 0.111176
2 1 0.990351 0.468877 0.248452
1 2 0.251214 0.508165 0.496277
6 1 0.072972 0.955152 0.572104
4 1 0.207229 0.960285 0.485255
ITEM: TIMESTEP
16000000
ITEM: NUMBER OF ATOMS
6
ITEM: BOX BOUNDS pp pp pp
-2.5000000000000000e+01 2.5000000000000000e+01
-2.0000000000000000e+01 2.0000000000000000e+01
-2.0000000000000000e+01 2.0000000000000000e+01
ITEM: ATOMS id type xs ys zs
6 1 0.0907728 0.341744 0.00832418
5 1 0.754616 0.370849 0.523388
1 2 0.293348 0.483511 0.489116
3 1 0.908723 0.54372 0.674918
2 1 0.205571 0.907248 0.721791
4 1 0.845244 0.621599 0.985663
ITEM: TIMESTEP
17000000
ITEM: NUMBER OF ATOMS
6
ITEM: BOX BOUNDS pp pp pp
-2.5000000000000000e+01 2.5000000000000000e+01
-2.0000000000000000e+01 2.0000000000000000e+01
-2.0000000000000000e+01 2.0000000000000000e+01
ITEM: ATOMS id type xs ys zs
3 1 0.0671731 0.160517 0.00175783
2 1 0.711588 0.787452 0.0657654
6 1 0.276981 0.235558 0.437605
5 1 0.0783272 0.420905 0.416177
1 2 0.28785 0.50693 0.492472
4 1 0.747786 0.792395 0.493931
ITEM: TIMESTEP
18000000
ITEM: NUMBER OF ATOMS
6
ITEM: BOX BOUNDS pp pp pp
-2.5000000000000000e+01 2.5000000000000000e+01
-2.0000000000000000e+01 2.0000000000000000e+01
-2.0000000000000000e+01 2.0000000000000000e+01
ITEM: ATOMS id type xs ys zs
5 1 0.789765 0.406085 0.211919
6 1 0.0849569 0.644665 0.22946
1 2 0.298378 0.514243 0.49301
2 1 0.218791 0.770983 0.687845
3 1 0.910001 0.510602 0.765002
4 1 0.839806 0.238731 0.733331
ITEM: TIMESTEP
19000000
ITEM: NUMBER OF ATOMS
6
ITEM: BOX BOUNDS pp pp pp
-2.5000000000000000e+01 2.5000000000000000e+01
-2.0000000000000000e+01 2.0000000000000000e+01
-2.0000000000000000e+01 2.0000000000000000e+01
ITEM: ATOMS id type xs ys zs
2 1 0.845746 0.252908 0.0870316
4 1 0.925323 0.506164 0.131407
6 1 0.765816 0.964628 0.131302
3 1 0.982273 0.118988 0.379544
1 2 0.316223 0.513936 0.502995
5 1 0.977753 0.42698 0.694167
ITEM: TIMESTEP
20000000
ITEM: NUMBER OF ATOMS
6
ITEM: BOX BOUNDS pp pp pp
-2.5000000000000000e+01 2.5000000000000000e+01
-2.0000000000000000e+01 2.0000000000000000e+01
-2.0000000000000000e+01 2.0000000000000000e+01
ITEM: ATOMS id type xs ys zs
5 1 0.948712 0.338833 0.211437
6 1 0.225562 0.609353 0.374109
4 1 0.0746538 0.255025 0.462554
1 2 0.321628 0.494242 0.51128
3 1 0.972085 0.164481 0.624676
2 1 0.132146 0.628524 0.65943
ITEM: TIMESTEP
21000000
ITEM: NUMBER OF ATOMS
6
ITEM: BOX BOUNDS pp pp pp
-2.5000000000000000e+01 2.5000000000000000e+01
-2.0000000000000000e+01 2.0000000000000000e+01
-2.0000000000000000e+01 2.0000000000000000e+01
ITEM: ATOMS id type xs ys zs
5 1 0.241468 0.127395 0.0662861
3 1 0.753991 0.0452836 0.222133
4 1 0.277572 0.696972 0.394339
1 2 0.364579 0.500865 0.512181
2 1 0.896307 0.892357 0.70322
6 1 0.922836 0.579358 0.776411
ITEM: TIMESTEP
22000000
ITEM: NUMBER OF ATOMS
6
ITEM: BOX BOUNDS pp pp pp
-2.5000000000000000e+01 2.5000000000000000e+01
-2.0000000000000000e+01 2.0000000000000000e+01
-2.0000000000000000e+01 2.0000000000000000e+01
ITEM: ATOMS id type xs ys zs
2 1 0.0305649 0.10641 0.0792682
5 1 0.732907 0.70121 0.233923
4 1 0.996116 0.00250677 0.368232
1 2 0.372294 0.500023 0.509301
3 1 0.326577 0.654846 0.688569
6 1 0.924276 0.776909 0.742717
ITEM: TIMESTEP
23000000
ITEM: NUMBER OF ATOMS
6
ITEM: BOX BOUNDS pp pp pp
-2.5000000000000000e+01 2.5000000000000000e+01
-2.0000000000000000e+01 2.0000000000000000e+01
-2.0000000000000000e+01 2.0000000000000000e+01
ITEM: ATOMS id type xs ys zs
4 1 0.214145 0.297218 0.0737556
5 1 0.00613766 0.934432 0.0957561
1 2 0.381936 0.502252 0.495354
3 1 0.115934 0.596006 0.506296
2 1 0.198196 0.180651 0.574405
6 1 0.0320712 0.287061 0.888922
ITEM: TIMESTEP
24000000
ITEM: NUMBER OF ATOMS
6
ITEM: BOX BOUNDS pp pp pp
-2.5000000000000000e+01 2.5000000000000000e+01
-2.0000000000000000e+01 2.0000000000000000e+01
-2.0000000000000000e+01 2.0000000000000000e+01
ITEM: ATOMS id type xs ys zs
6 1 0.865965 0.171906 0.260257
1 2 0.387705 0.495699 0.490057
4 1 0.209095 0.868482 0.621859
2 1 0.0355247 0.345054 0.785719
3 1 0.7106 0.425548 0.871492
5 1 0.0970712 0.668106 0.871265
ITEM: TIMESTEP
25000000
ITEM: NUMBER OF ATOMS
6
ITEM: BOX BOUNDS pp pp pp
-2.5000000000000000e+01 2.5000000000000000e+01
-2.0000000000000000e+01 2.0000000000000000e+01
-2.0000000000000000e+01 2.0000000000000000e+01
ITEM: ATOMS id type xs ys zs
3 1 0.169752 0.526663 0.161533
2 1 0.0239031 0.910522 0.264914
4 1 0.705175 0.749546 0.327061
5 1 0.0298916 0.135835 0.396658
1 2 0.39179 0.491892 0.494865
6 1 0.180448 0.770298 0.675372
ITEM: TIMESTEP
26000000
ITEM: NUMBER OF ATOMS
6
ITEM: BOX BOUNDS pp pp pp
-2.5000000000000000e+01 2.5000000000000000e+01
-2.0000000000000000e+01 2.0000000000000000e+01
-2.0000000000000000e+01 2.0000000000000000e+01
ITEM: ATOMS id type xs ys zs
1 2 0.394611 0.494597 0.50653
3 1 0.0262769 0.022195 0.576966
2 1 0.883555 0.590945 0.537
5 1 1.00902 0.467961 0.693655
4 1 0.957083 0.246246 0.766811
6 1 0.943799 0.10624 0.909921
ITEM: TIMESTEP
27000000
ITEM: NUMBER OF ATOMS
6
ITEM: BOX BOUNDS pp pp pp
-2.5000000000000000e+01 2.5000000000000000e+01
-2.0000000000000000e+01 2.0000000000000000e+01
-2.0000000000000000e+01 2.0000000000000000e+01
ITEM: ATOMS id type xs ys zs
2 1 0.292748 0.181689 0.031812
3 1 0.197477 0.700616 0.021767
6 1 0.840775 0.620291 0.062733
1 2 0.459714 0.506007 0.494878
4 1 0.0786766 0.0804214 0.645989
5 1 0.73833 0.735044 0.939056
ITEM: TIMESTEP
28000000
ITEM: NUMBER OF ATOMS
6
ITEM: BOX BOUNDS pp pp pp
-2.5000000000000000e+01 2.5000000000000000e+01
-2.0000000000000000e+01 2.0000000000000000e+01
-2.0000000000000000e+01 2.0000000000000000e+01
ITEM: ATOMS id type xs ys zs
4 1 0.73174 0.768214 0.0662554
1 2 0.478486 0.509932 0.496719
2 1 0.703278 0.900163 0.53675
6 1 0.91662 0.465478 0.628963
5 1 0.0409375 0.34831 0.695584
3 1 0.839763 0.478353 0.730005
ITEM: TIMESTEP
29000000
ITEM: NUMBER OF ATOMS
6
ITEM: BOX BOUNDS pp pp pp
-2.5000000000000000e+01 2.5000000000000000e+01
-2.0000000000000000e+01 2.0000000000000000e+01
-2.0000000000000000e+01 2.0000000000000000e+01
ITEM: ATOMS id type xs ys zs
3 1 0.235186 0.009313 0.205667
4 1 0.965427 0.335649 0.50664
1 2 0.502992 0.487042 0.527083
6 1 0.00204779 0.383934 0.584307
2 1 0.799908 0.513709 0.61158
5 1 0.926528 0.951062 0.60856
ITEM: TIMESTEP
30000000
ITEM: NUMBER OF ATOMS
6
ITEM: BOX BOUNDS pp pp pp
-2.5000000000000000e+01 2.5000000000000000e+01
-2.0000000000000000e+01 2.0000000000000000e+01
-2.0000000000000000e+01 2.0000000000000000e+01
ITEM: ATOMS id type xs ys zs
6 1 0.0488107 0.253061 0.392731
4 1 0.708373 0.769729 0.330427
1 2 0.505575 0.483984 0.501212
3 1 0.896978 0.200257 0.546825
5 1 0.842829 0.369333 0.665257
2 1 0.185464 0.630865 0.990977
ITEM: TIMESTEP
31000000
ITEM: NUMBER OF ATOMS
6
ITEM: BOX BOUNDS pp pp pp
-2.5000000000000000e+01 2.5000000000000000e+01
-2.0000000000000000e+01 2.0000000000000000e+01
-2.0000000000000000e+01 2.0000000000000000e+01
ITEM: ATOMS id type xs ys zs
3 1 0.760898 0.949749 0.163479
2 1 0.879903 0.803314 0.273177
5 1 0.855875 0.28592 0.352385
4 1 0.791108 0.43006 0.460497
6 1 0.982116 0.421922 0.525509
1 2 0.521173 0.503563 0.511188
ITEM: TIMESTEP
32000000
ITEM: NUMBER OF ATOMS
6
ITEM: BOX BOUNDS pp pp pp
-2.5000000000000000e+01 2.5000000000000000e+01
-2.0000000000000000e+01 2.0000000000000000e+01
-2.0000000000000000e+01 2.0000000000000000e+01
ITEM: ATOMS id type xs ys zs
5 1 0.786293 0.225948 0.0401393
3 1 0.980474 0.738546 0.131593
2 1 0.254183 0.956079 0.0817717
1 2 0.550542 0.504233 0.49666
6 1 0.113219 0.251086 0.575783
4 1 0.34988 0.0744645 0.927965
ITEM: TIMESTEP
33000000
ITEM: NUMBER OF ATOMS
6
ITEM: BOX BOUNDS pp pp pp
-2.5000000000000000e+01 2.5000000000000000e+01
-2.0000000000000000e+01 2.0000000000000000e+01
-2.0000000000000000e+01 2.0000000000000000e+01
ITEM: ATOMS id type xs ys zs
2 1 0.24404 0.228803 0.0695913
4 1 0.314599 0.84067 0.200463
5 1 0.193104 0.591422 0.325499
1 2 0.598253 0.500837 0.504239
3 1 0.721776 0.311293 0.567981
6 1 0.214179 0.919471 0.840689
ITEM: TIMESTEP
34000000
ITEM: NUMBER OF ATOMS
6
ITEM: BOX BOUNDS pp pp pp
-2.5000000000000000e+01 2.5000000000000000e+01
-2.0000000000000000e+01 2.0000000000000000e+01
-2.0000000000000000e+01 2.0000000000000000e+01
ITEM: ATOMS id type xs ys zs
3 1 0.783005 0.753776 0.069148
1 2 0.610311 0.50001 0.5134
5 1 0.240238 0.25824 0.514939
2 1 0.312563 0.828665 0.740656
4 1 0.723161 0.887903 0.832075
6 1 0.667016 0.482844 0.941187
ITEM: TIMESTEP
35000000
ITEM: NUMBER OF ATOMS
6
ITEM: BOX BOUNDS pp pp pp
-2.5000000000000000e+01 2.5000000000000000e+01
-2.0000000000000000e+01 2.0000000000000000e+01
-2.0000000000000000e+01 2.0000000000000000e+01
ITEM: ATOMS id type xs ys zs
3 1 0.987026 0.99774 0.0771559
5 1 0.740833 0.853598 0.234269
1 2 0.609768 0.523054 0.510442
6 1 0.319507 0.974806 0.597267
4 1 0.0346729 0.13065 0.697144
2 1 0.255812 0.921634 0.958042
ITEM: TIMESTEP
36000000
ITEM: NUMBER OF ATOMS
6
ITEM: BOX BOUNDS pp pp pp
-2.5000000000000000e+01 2.5000000000000000e+01
-2.0000000000000000e+01 2.0000000000000000e+01
-2.0000000000000000e+01 2.0000000000000000e+01
ITEM: ATOMS id type xs ys zs
2 1 0.193012 0.37316 0.153593
1 2 0.613227 0.497836 0.495796
4 1 0.129625 0.790426 0.664952
5 1 0.839196 0.0837632 0.747844
3 1 0.945819 0.386357 0.696218
6 1 0.339498 0.0743601 0.799053
ITEM: TIMESTEP
37000000
ITEM: NUMBER OF ATOMS
6
ITEM: BOX BOUNDS pp pp pp
-2.5000000000000000e+01 2.5000000000000000e+01
-2.0000000000000000e+01 2.0000000000000000e+01
-2.0000000000000000e+01 2.0000000000000000e+01
ITEM: ATOMS id type xs ys zs
5 1 0.89142 0.568656 0.00855404
2 1 0.834769 0.375386 0.137503
3 1 0.0585649 0.532403 0.210349
4 1 0.783068 0.281151 0.430626
1 2 0.637988 0.506931 0.493089
6 1 0.180721 0.147046 0.743981
ITEM: TIMESTEP
38000000
ITEM: NUMBER OF ATOMS
6
ITEM: BOX BOUNDS pp pp pp
-2.5000000000000000e+01 2.5000000000000000e+01
-2.0000000000000000e+01 2.0000000000000000e+01
-2.0000000000000000e+01 2.0000000000000000e+01
ITEM: ATOMS id type xs ys zs
6 1 0.169049 0.877968 0.985427
5 1 0.11938 0.159399 0.269387
3 1 0.27702 0.198537 0.339965
1 2 0.645722 0.493882 0.499979
4 1 0.6847 0.647527 0.560358
2 1 0.734987 0.456506 0.920264
ITEM: TIMESTEP
39000000
ITEM: NUMBER OF ATOMS
6
ITEM: BOX BOUNDS pp pp pp
-2.5000000000000000e+01 2.5000000000000000e+01
-2.0000000000000000e+01 2.0000000000000000e+01
-2.0000000000000000e+01 2.0000000000000000e+01
ITEM: ATOMS id type xs ys zs
4 1 0.142593 0.0801598 0.130068
6 1 0.843551 0.636632 0.224118
5 1 0.188669 0.183035 0.36032
3 1 0.140313 0.750455 0.336053
1 2 0.665135 0.496395 0.505453
2 1 0.918367 0.489279 0.822139
ITEM: TIMESTEP
40000000
ITEM: NUMBER OF ATOMS
6
ITEM: BOX BOUNDS pp pp pp
-2.5000000000000000e+01 2.5000000000000000e+01
-2.0000000000000000e+01 2.0000000000000000e+01
-2.0000000000000000e+01 2.0000000000000000e+01
ITEM: ATOMS id type xs ys zs
6 1 0.078032 0.635608 0.0245818
5 1 0.777051 0.667211 0.123151
3 1 0.841287 0.361423 0.22522
1 2 0.674377 0.49858 0.491426
2 1 0.871944 0.997354 0.976984
4 1 0.304669 0.109913 0.917314
ITEM: TIMESTEP
41000000
ITEM: NUMBER OF ATOMS
6
ITEM: BOX BOUNDS pp pp pp
-2.5000000000000000e+01 2.5000000000000000e+01
-2.0000000000000000e+01 2.0000000000000000e+01
-2.0000000000000000e+01 2.0000000000000000e+01
ITEM: ATOMS id type xs ys zs
3 1 0.807987 0.356564 0.053288
4 1 0.342883 0.852641 0.0753275
2 1 0.272286 0.358643 0.151883
1 2 0.701383 0.49869 0.469492
5 1 0.31079 0.409988 0.66651
6 1 0.899077 0.436368 0.679069
ITEM: TIMESTEP
42000000
ITEM: NUMBER OF ATOMS
6
ITEM: BOX BOUNDS pp pp pp
-2.5000000000000000e+01 2.5000000000000000e+01
-2.0000000000000000e+01 2.0000000000000000e+01
-2.0000000000000000e+01 2.0000000000000000e+01
ITEM: ATOMS id type xs ys zs
5 1 0.941473 0.545918 0.0924509
2 1 0.145629 0.0795782 0.46327
6 1 0.277441 0.799525 0.474082
1 2 0.693783 0.50658 0.495678
3 1 0.806049 0.447896 0.570052
4 1 0.060375 0.889337 0.985118
ITEM: TIMESTEP
43000000
ITEM: NUMBER OF ATOMS
6
ITEM: BOX BOUNDS pp pp pp
-2.5000000000000000e+01 2.5000000000000000e+01
-2.0000000000000000e+01 2.0000000000000000e+01
-2.0000000000000000e+01 2.0000000000000000e+01
ITEM: ATOMS id type xs ys zs
4 1 0.948386 0.455671 0.211437
6 1 0.138624 0.124069 0.322485
5 1 0.0808803 0.0941898 0.514886
1 2 0.709564 0.5058 0.489404
3 1 0.00293557 0.985074 0.78678
2 1 0.777429 0.0066059 0.840848
ITEM: TIMESTEP
44000000
ITEM: NUMBER OF ATOMS
6
ITEM: BOX BOUNDS pp pp pp
-2.5000000000000000e+01 2.5000000000000000e+01
-2.0000000000000000e+01 2.0000000000000000e+01
-2.0000000000000000e+01 2.0000000000000000e+01
ITEM: ATOMS id type xs ys zs
3 1 0.760157 0.69741 0.319832
1 2 0.747334 0.487652 0.500507
4 1 0.089486 0.293449 0.622545
2 1 0.914028 0.94775 0.630942
6 1 0.820231 0.382958 0.84823
5 1 0.834399 0.867995 0.908071
ITEM: TIMESTEP
45000000
ITEM: NUMBER OF ATOMS
6
ITEM: BOX BOUNDS pp pp pp
-2.5000000000000000e+01 2.5000000000000000e+01
-2.0000000000000000e+01 2.0000000000000000e+01
-2.0000000000000000e+01 2.0000000000000000e+01
ITEM: ATOMS id type xs ys zs
3 1 0.129205 0.671909 0.112328
1 2 0.754221 0.509909 0.495901
2 1 0.32186 0.760644 0.538795
5 1 0.164555 0.992494 0.559403
4 1 0.0882431 0.0713619 0.636365
6 1 0.0993249 0.886439 0.683994
ITEM: TIMESTEP
46000000
ITEM: NUMBER OF ATOMS
6
ITEM: BOX BOUNDS pp pp pp
-2.5000000000000000e+01 2.5000000000000000e+01
-2.0000000000000000e+01 2.0000000000000000e+01
-2.0000000000000000e+01 2.0000000000000000e+01
ITEM: ATOMS id type xs ys zs
5 1 0.331432 0.772218 0.0602555
2 1 0.0878241 0.811953 0.227535
3 1 0.227167 0.291764 0.321969
4 1 0.736498 0.520049 0.393516
6 1 0.0718578 0.162746 0.52406
1 2 0.781117 0.521672 0.487577
ITEM: TIMESTEP
47000000
ITEM: NUMBER OF ATOMS
6
ITEM: BOX BOUNDS pp pp pp
-2.5000000000000000e+01 2.5000000000000000e+01
-2.0000000000000000e+01 2.0000000000000000e+01
-2.0000000000000000e+01 2.0000000000000000e+01
ITEM: ATOMS id type xs ys zs
2 1 0.797048 0.38931 0.278958
3 1 0.0761062 0.600663 0.446109
6 1 0.126289 0.78973 0.408386
1 2 0.780133 0.487541 0.483476
5 1 0.75115 0.200727 0.701591
4 1 0.133648 0.832013 0.873731
ITEM: TIMESTEP
48000000
ITEM: NUMBER OF ATOMS
6
ITEM: BOX BOUNDS pp pp pp
-2.5000000000000000e+01 2.5000000000000000e+01
-2.0000000000000000e+01 2.0000000000000000e+01
-2.0000000000000000e+01 2.0000000000000000e+01
ITEM: ATOMS id type xs ys zs
5 1 0.871804 0.0229202 0.15338
2 1 0.088026 0.667801 0.144529
4 1 0.151294 0.0857975 0.297006
3 1 0.297785 0.263175 0.444664
6 1 0.179024 0.0124332 0.502278
1 2 0.797829 0.498621 0.517907
ITEM: TIMESTEP
49000000
ITEM: NUMBER OF ATOMS
6
ITEM: BOX BOUNDS pp pp pp
-2.5000000000000000e+01 2.5000000000000000e+01
-2.0000000000000000e+01 2.0000000000000000e+01
-2.0000000000000000e+01 2.0000000000000000e+01
ITEM: ATOMS id type xs ys zs
3 1 0.713696 0.218373 0.30725
4 1 0.0322157 0.112381 0.437505
1 2 0.831856 0.504842 0.482665
2 1 0.0367927 0.481114 0.56726
6 1 0.833345 0.190517 0.604209
5 1 0.0365509 0.22249 0.927274
ITEM: TIMESTEP
50000000
ITEM: NUMBER OF ATOMS
6
ITEM: BOX BOUNDS pp pp pp
-2.5000000000000000e+01 2.5000000000000000e+01
-2.0000000000000000e+01 2.0000000000000000e+01
-2.0000000000000000e+01 2.0000000000000000e+01
ITEM: ATOMS id type xs ys zs
4 1 0.168362 0.306693 0.257093
2 1 0.177209 0.328929 0.453208
1 2 0.853303 0.514649 0.50474
6 1 0.326412 0.285725 0.772567
5 1 0.0688463 0.619408 0.819768
3 1 0.128121 0.379481 0.963708
ITEM: TIMESTEP
51000000
ITEM: NUMBER OF ATOMS
6
ITEM: BOX BOUNDS pp pp pp
-2.5000000000000000e+01 2.5000000000000000e+01
-2.0000000000000000e+01 2.0000000000000000e+01
-2.0000000000000000e+01 2.0000000000000000e+01
ITEM: ATOMS id type xs ys zs
5 1 0.687976 0.928047 0.157141
3 1 0.944695 0.0773267 0.310999
6 1 0.291245 0.267897 0.392383
1 2 0.854691 0.512743 0.47936
4 1 0.664638 0.258635 0.866675
2 1 0.053753 0.948177 0.925739
ITEM: TIMESTEP
52000000
ITEM: NUMBER OF ATOMS
6
ITEM: BOX BOUNDS pp pp pp
-2.5000000000000000e+01 2.5000000000000000e+01
-2.0000000000000000e+01 2.0000000000000000e+01
-2.0000000000000000e+01 2.0000000000000000e+01
ITEM: ATOMS id type xs ys zs
1 2 0.885257 0.503556 0.488829
3 1 0.215775 0.636944 0.645835
2 1 0.175724 0.985267 0.7279
6 1 0.0287287 0.918488 0.713648
5 1 0.133556 0.15741 0.794775
4 1 0.321469 0.782035 0.812277
ITEM: TIMESTEP
53000000
ITEM: NUMBER OF ATOMS
6
ITEM: BOX BOUNDS pp pp pp
-2.5000000000000000e+01 2.5000000000000000e+01
-2.0000000000000000e+01 2.0000000000000000e+01
-2.0000000000000000e+01 2.0000000000000000e+01
ITEM: ATOMS id type xs ys zs
3 1 0.19106 0.108229 0.339923
4 1 0.288342 0.512369 0.365548
1 2 0.916131 0.495561 0.496554
5 1 0.0903519 0.0760311 0.661166
2 1 0.18751 0.501078 0.782735
6 1 0.311989 0.449554 0.868047
ITEM: TIMESTEP
54000000
ITEM: NUMBER OF ATOMS
6
ITEM: BOX BOUNDS pp pp pp
-2.5000000000000000e+01 2.5000000000000000e+01
-2.0000000000000000e+01 2.0000000000000000e+01
-2.0000000000000000e+01 2.0000000000000000e+01
ITEM: ATOMS id type xs ys zs
4 1 0.163078 0.387098 0.0339212
6 1 0.154651 0.947892 0.0998748
1 2 0.899909 0.497483 0.493241
3 1 0.715206 0.63266 0.656328
5 1 0.93723 0.651386 0.643894
2 1 0.987022 0.0192231 0.863958
ITEM: TIMESTEP
55000000
ITEM: NUMBER OF ATOMS
6
ITEM: BOX BOUNDS pp pp pp
-2.5000000000000000e+01 2.5000000000000000e+01
-2.0000000000000000e+01 2.0000000000000000e+01
-2.0000000000000000e+01 2.0000000000000000e+01
ITEM: ATOMS id type xs ys zs
5 1 0.73228 0.980073 0.310761
2 1 0.0397284 0.198178 0.522879
1 2 0.901755 0.489451 0.493061
6 1 0.953747 0.243871 0.871047
3 1 0.180937 0.627108 0.7591
4 1 0.780261 0.315292 0.924294
ITEM: TIMESTEP
56000000
ITEM: NUMBER OF ATOMS
6
ITEM: BOX BOUNDS pp pp pp
-2.5000000000000000e+01 2.5000000000000000e+01
-2.0000000000000000e+01 2.0000000000000000e+01
-2.0000000000000000e+01 2.0000000000000000e+01
ITEM: ATOMS id type xs ys zs
2 1 0.71319 0.804418 0.306221
3 1 0.221928 0.580792 0.412433
1 2 0.934526 0.490352 0.505451
4 1 0.885443 0.531648 0.598488
6 1 0.932276 0.544984 0.696175
5 1 0.906754 0.511499 0.857759
ITEM: TIMESTEP
57000000
ITEM: NUMBER OF ATOMS
6
ITEM: BOX BOUNDS pp pp pp
-2.5000000000000000e+01 2.5000000000000000e+01
-2.0000000000000000e+01 2.0000000000000000e+01
-2.0000000000000000e+01 2.0000000000000000e+01
ITEM: ATOMS id type xs ys zs
3 1 0.251134 0.476526 0.351528
2 1 0.996882 0.943797 0.466505
4 1 0.0291365 0.222097 0.510558
1 2 0.963094 0.492728 0.506494
5 1 0.838731 0.383471 0.807374
6 1 0.938282 0.82144 0.902224
ITEM: TIMESTEP
58000000
ITEM: NUMBER OF ATOMS
6
ITEM: BOX BOUNDS pp pp pp
-2.5000000000000000e+01 2.5000000000000000e+01
-2.0000000000000000e+01 2.0000000000000000e+01
-2.0000000000000000e+01 2.0000000000000000e+01
ITEM: ATOMS id type xs ys zs
2 1 0.285963 0.0497422 0.302433
5 1 0.0980042 0.556304 0.371652
1 2 0.975041 0.501708 0.501301
3 1 0.80325 0.937239 0.758833
6 1 0.811993 0.139325 0.887401
4 1 0.282438 0.914727 0.920493
ITEM: TIMESTEP
59000000
ITEM: NUMBER OF ATOMS
6
ITEM: BOX BOUNDS pp pp pp
-2.5000000000000000e+01 2.5000000000000000e+01
-2.0000000000000000e+01 2.0000000000000000e+01
-2.0000000000000000e+01 2.0000000000000000e+01
ITEM: ATOMS id type xs ys zs
2 1 0.00821111 0.522676 0.254834
1 2 0.00937299 0.502664 0.496094
6 1 0.0560417 0.299154 0.589267
3 1 0.858219 0.806214 0.736365
4 1 0.173414 0.0580679 0.919716
5 1 0.760129 0.115116 0.983609
ITEM: TIMESTEP
60000000
ITEM: NUMBER OF ATOMS
6
ITEM: BOX BOUNDS pp pp pp
-2.5000000000000000e+01 2.5000000000000000e+01
-2.0000000000000000e+01 2.0000000000000000e+01
-2.0000000000000000e+01 2.0000000000000000e+01
ITEM: ATOMS id type xs ys zs
3 1 0.129791 0.122887 0.0727661
2 1 0.217911 0.743215 0.246329
1 2 0.0118281 0.48955 0.513745
4 1 0.98984 -0.000386986 0.676832
6 1 0.128541 0.437036 0.63072
5 1 0.964211 0.901537 0.844038
