LAMMPS (29 Sep 2021 - Update 2)
OMP_NUM_THREADS environment is not set. Defaulting to 1 thread. (src/comm.cpp:98)
  using 1 OpenMP thread(s) per MPI task
# LAMMPS input script
# author : Simon Gravelle
# lammpstutorials.github.io

# define a bunch of variables
variable sigma equal 3.405 # Angstrom
variable epsilon equal 0.238 # Kcal/mol
variable U0 equal 10*${epsilon} # Kcal/mol
variable U0 equal 10*0.238 
variable dlt equal 0.5 # Angstrom
variable x0 equal 5.0 # Angstrom
variable k equal 1.5 # Kcal/mol/Angstrom^2

# initialise the simulation
units real
atom_style atomic
pair_style lj/cut 3.822 # 2^(1/6) * 3.405 WCA potential
pair_modify shift yes
boundary p p p

# define the system
region myreg block -25 25 -20 20 -20 20
create_box 2 myreg
Created orthogonal box = (-25.000000 -20.000000 -20.000000) to (25.000000 20.000000 20.000000)
  1 by 1 by 1 MPI processor grid
create_atoms 2 single 0 0 0
Created 1 atoms
  using lattice units in orthogonal box = (-25.000000 -20.000000 -20.000000) to (25.000000 20.000000 20.000000)
  create_atoms CPU = 0.000 seconds
create_atoms 1 random 5 341341 myreg
Created 5 atoms
  using lattice units in orthogonal box = (-25.000000 -20.000000 -20.000000) to (25.000000 20.000000 20.000000)
  create_atoms CPU = 0.000 seconds

# settings
mass * 39.948
pair_coeff * * ${epsilon} ${sigma}
pair_coeff * * 0.238 ${sigma}
pair_coeff * * 0.238 3.405
neigh_modify every 1 delay 4 check yes
group topull type 2
1 atoms in group topull

# run
variable U atom ${U0}*atan((x+${x0})/${dlt})-${U0}*atan((x-${x0})/${dlt})
variable U atom 2.38*atan((x+${x0})/${dlt})-${U0}*atan((x-${x0})/${dlt})
variable U atom 2.38*atan((x+5)/${dlt})-${U0}*atan((x-${x0})/${dlt})
variable U atom 2.38*atan((x+5)/0.5)-${U0}*atan((x-${x0})/${dlt})
variable U atom 2.38*atan((x+5)/0.5)-2.38*atan((x-${x0})/${dlt})
variable U atom 2.38*atan((x+5)/0.5)-2.38*atan((x-5)/${dlt})
variable U atom 2.38*atan((x+5)/0.5)-2.38*atan((x-5)/0.5)
variable F atom ${U0}/((x-${x0})^2/${dlt}^2+1)/${dlt}-${U0}/((x+${x0})^2/${dlt}^2+1)/${dlt}
variable F atom 2.38/((x-${x0})^2/${dlt}^2+1)/${dlt}-${U0}/((x+${x0})^2/${dlt}^2+1)/${dlt}
variable F atom 2.38/((x-5)^2/${dlt}^2+1)/${dlt}-${U0}/((x+${x0})^2/${dlt}^2+1)/${dlt}
variable F atom 2.38/((x-5)^2/0.5^2+1)/${dlt}-${U0}/((x+${x0})^2/${dlt}^2+1)/${dlt}
variable F atom 2.38/((x-5)^2/0.5^2+1)/0.5-${U0}/((x+${x0})^2/${dlt}^2+1)/${dlt}
variable F atom 2.38/((x-5)^2/0.5^2+1)/0.5-2.38/((x+${x0})^2/${dlt}^2+1)/${dlt}
variable F atom 2.38/((x-5)^2/0.5^2+1)/0.5-2.38/((x+5)^2/${dlt}^2+1)/${dlt}
variable F atom 2.38/((x-5)^2/0.5^2+1)/0.5-2.38/((x+5)^2/0.5^2+1)/${dlt}
variable F atom 2.38/((x-5)^2/0.5^2+1)/0.5-2.38/((x+5)^2/0.5^2+1)/0.5
fix pot all addforce v_F 0.0 0.0 energy v_U

fix mynve all nve
fix mylgv all langevin 119.8 119.8 100 1530917
timestep 2.0
thermo 100000
run 2000000
Neighbor list info ...
  update every 1 steps, delay 4 steps, check yes
  max neighbors/atom: 2000, page size: 100000
  master list distance cutoff = 5.822
  ghost atom cutoff = 5.822
  binsize = 2.911, bins = 18 14 14
  1 neighbor lists, perpetual/occasional/extra = 1 0 0
  (1) pair lj/cut, perpetual
      attributes: half, newton on
      pair build: half/bin/atomonly/newton
      stencil: half/bin/3d
      bin: standard
Per MPI rank memory allocation (min/avg/max) = 3.588 | 3.588 | 3.588 Mbytes
Step Temp E_pair E_mol TotEng Press 
       0            0            0            0            0            0 
  100000    144.27464            0            0    2.1502765    1.2286754 
  200000    128.87393            0            0    1.9207435    1.0975195 
  300000    105.63962            0            0    1.5744582   0.89965085 
  400000    128.55471            0            0    1.9159858    1.0948009 
  500000    147.17089            0            0    2.1934423    1.2533405 
  600000    179.73914            0            0    2.6788412    1.5306991 
  700000    232.10339            0            0    3.4592806    1.9766449 
  800000    107.18199            0            0    1.5974458   0.91278607 
  900000    127.91015            0            0    1.9063792    1.0893117 
 1000000    142.78185            0            0    2.1280279    1.2159625 
 1100000      222.829            0            0    3.3210545     1.897662 
 1200000    138.65062            0            0    2.0664557      1.18078 
 1300000     103.3186            0            0    1.5398656   0.87988453 
 1400000     161.4875            0            0    2.4068178     1.375264 
 1500000     137.8119            0            0    2.0539555    1.1736373 
 1600000    108.41217            0            0    1.6157805   0.92326256 
 1700000    136.81855            0            0    2.0391505    1.1651777 
 1800000    108.41587            0            0    1.6158355   0.92329399 
 1900000    164.70502            0            0    2.4547718    1.4026651 
 2000000    161.99531            0            0    2.4143863    1.3795887 
Loop time of 7.57625 on 1 procs for 2000000 steps with 6 atoms

Performance: 45616.256 ns/day, 0.001 hours/ns, 263982.962 timesteps/s
99.9% CPU use with 1 MPI tasks x 1 OpenMP threads

MPI task timing breakdown:
Section |  min time  |  avg time  |  max time  |%varavg| %total
---------------------------------------------------------------
Pair    | 0.068058   | 0.068058   | 0.068058   |   0.0 |  0.90
Neigh   | 0.016927   | 0.016927   | 0.016927   |   0.0 |  0.22
Comm    | 0.15529    | 0.15529    | 0.15529    |   0.0 |  2.05
Output  | 0.00025136 | 0.00025136 | 0.00025136 |   0.0 |  0.00
Modify  | 7.1759     | 7.1759     | 7.1759     |   0.0 | 94.72
Other   |            | 0.1598     |            |       |  2.11

Nlocal:        6.00000 ave           6 max           6 min
Histogram: 1 0 0 0 0 0 0 0 0 0
Nghost:        7.00000 ave           7 max           7 min
Histogram: 1 0 0 0 0 0 0 0 0 0
Neighs:         0.00000 ave           0 max           0 min
Histogram: 1 0 0 0 0 0 0 0 0 0

Total # of neighbors = 0
Ave neighs/atom = 0.0000000
Neighbor list builds = 8974
Dangerous builds = 0
reset_timestep 0

dump mydmp all atom 1000000 dump.lammpstrj

variable a loop 50
label loop
variable xdes equal ${a}-25
variable xdes equal 1-25
variable xave equal xcm(topull,x)
fix mytth topull spring tether ${k} ${xdes} 0 0 0
fix mytth topull spring tether 1.5 ${xdes} 0 0 0
fix mytth topull spring tether 1.5 -24 0 0 0
run 200000 # equilibrate
Per MPI rank memory allocation (min/avg/max) = 4.588 | 4.588 | 4.588 Mbytes
Step Temp E_pair E_mol TotEng Press 
       0    161.99531            0            0    2.4143863    1.3795887 
  100000    147.85139            0            0    2.2035845    1.2591358 
  200000    162.42488            0            0    2.4207886     1.383247 
Loop time of 0.774253 on 1 procs for 200000 steps with 6 atoms

Performance: 44636.595 ns/day, 0.001 hours/ns, 258313.630 timesteps/s
100.0% CPU use with 1 MPI tasks x 1 OpenMP threads

MPI task timing breakdown:
Section |  min time  |  avg time  |  max time  |%varavg| %total
---------------------------------------------------------------
Pair    | 0.0069427  | 0.0069427  | 0.0069427  |   0.0 |  0.90
Neigh   | 0.0018335  | 0.0018335  | 0.0018335  |   0.0 |  0.24
Comm    | 0.015389   | 0.015389   | 0.015389   |   0.0 |  1.99
Output  | 2.67e-05   | 2.67e-05   | 2.67e-05   |   0.0 |  0.00
Modify  | 0.73413    | 0.73413    | 0.73413    |   0.0 | 94.82
Other   |            | 0.01593    |            |       |  2.06

Nlocal:        6.00000 ave           6 max           6 min
Histogram: 1 0 0 0 0 0 0 0 0 0
Nghost:        11.0000 ave          11 max          11 min
Histogram: 1 0 0 0 0 0 0 0 0 0
Neighs:         0.00000 ave           0 max           0 min
Histogram: 1 0 0 0 0 0 0 0 0 0

Total # of neighbors = 0
Ave neighs/atom = 0.0000000
Neighbor list builds = 951
Dangerous builds = 0
fix myat1 all ave/time 10 10 100 v_xave v_xdes file position.${a}.dat
fix myat1 all ave/time 10 10 100 v_xave v_xdes file position.1.dat
run 1000000 # data aquisition
Per MPI rank memory allocation (min/avg/max) = 4.588 | 4.588 | 4.588 Mbytes
Step Temp E_pair E_mol TotEng Press 
  200000    162.42488            0            0    2.4207886     1.383247 
  300000    118.37617            0            0    1.7642843    1.0081182 
  400000    103.97121            0            0    1.5495921   0.88544231 
  500000     133.1625            0            0    1.9846606    1.1340419 
  600000     104.4367            0            0    1.5565298   0.88940653 
  700000    182.01977            0            0    2.7128318    1.5501214 
  800000    192.76603            0            0    2.8729946     1.641639 
  900000    162.96369            0            0    2.4288191    1.3878356 
 1000000    146.44478            0            0    2.1826203    1.2471568 
 1100000    124.27078            0            0    1.8521379     1.058318 
 1200000    64.322482            0            0   0.95866551   0.54778479 
Loop time of 4.01503 on 1 procs for 1000000 steps with 6 atoms

Performance: 43038.301 ns/day, 0.001 hours/ns, 249064.243 timesteps/s
99.4% CPU use with 1 MPI tasks x 1 OpenMP threads

MPI task timing breakdown:
Section |  min time  |  avg time  |  max time  |%varavg| %total
---------------------------------------------------------------
Pair    | 0.035824   | 0.035824   | 0.035824   |   0.0 |  0.89
Neigh   | 0.0085085  | 0.0085085  | 0.0085085  |   0.0 |  0.21
Comm    | 0.075699   | 0.075699   | 0.075699   |   0.0 |  1.89
Output  | 0.00013561 | 0.00013561 | 0.00013561 |   0.0 |  0.00
Modify  | 3.8126     | 3.8126     | 3.8126     |   0.0 | 94.96
Other   |            | 0.08222    |            |       |  2.05

Nlocal:        6.00000 ave           6 max           6 min
Histogram: 1 0 0 0 0 0 0 0 0 0
Nghost:        6.00000 ave           6 max           6 min
Histogram: 1 0 0 0 0 0 0 0 0 0
Neighs:         0.00000 ave           0 max           0 min
Histogram: 1 0 0 0 0 0 0 0 0 0

Total # of neighbors = 0
Ave neighs/atom = 0.0000000
Neighbor list builds = 4351
Dangerous builds = 0
unfix myat1
next a
jump SELF loop
variable xdes equal ${a}-25
variable xdes equal 2-25
variable xave equal xcm(topull,x)
fix mytth topull spring tether ${k} ${xdes} 0 0 0
fix mytth topull spring tether 1.5 ${xdes} 0 0 0
fix mytth topull spring tether 1.5 -23 0 0 0
run 200000 # equilibrate
Per MPI rank memory allocation (min/avg/max) = 4.588 | 4.588 | 4.588 Mbytes
Step Temp E_pair E_mol TotEng Press 
 1200000    64.322482            0            0   0.95866551   0.54778479 
 1300000    150.86536            0            0    2.2485049    1.2848035 
 1400000    130.25575            0            0    1.9413383    1.1092874 
Loop time of 0.781913 on 1 procs for 200000 steps with 6 atoms

Performance: 44199.290 ns/day, 0.001 hours/ns, 255782.927 timesteps/s
100.0% CPU use with 1 MPI tasks x 1 OpenMP threads

MPI task timing breakdown:
Section |  min time  |  avg time  |  max time  |%varavg| %total
---------------------------------------------------------------
Pair    | 0.0070742  | 0.0070742  | 0.0070742  |   0.0 |  0.90
Neigh   | 0.001695   | 0.001695   | 0.001695   |   0.0 |  0.22
Comm    | 0.01538    | 0.01538    | 0.01538    |   0.0 |  1.97
Output  | 2.6791e-05 | 2.6791e-05 | 2.6791e-05 |   0.0 |  0.00
Modify  | 0.74148    | 0.74148    | 0.74148    |   0.0 | 94.83
Other   |            | 0.01626    |            |       |  2.08

Nlocal:        6.00000 ave           6 max           6 min
Histogram: 1 0 0 0 0 0 0 0 0 0
Nghost:        8.00000 ave           8 max           8 min
Histogram: 1 0 0 0 0 0 0 0 0 0
Neighs:         0.00000 ave           0 max           0 min
Histogram: 1 0 0 0 0 0 0 0 0 0

Total # of neighbors = 0
Ave neighs/atom = 0.0000000
Neighbor list builds = 871
Dangerous builds = 0
fix myat1 all ave/time 10 10 100 v_xave v_xdes file position.${a}.dat
fix myat1 all ave/time 10 10 100 v_xave v_xdes file position.2.dat
run 1000000 # data aquisition
Per MPI rank memory allocation (min/avg/max) = 4.588 | 4.588 | 4.588 Mbytes
Step Temp E_pair E_mol TotEng Press 
 1400000    130.25575            0            0    1.9413383    1.1092874 
 1500000    176.75403            0            0    2.6343509    1.5052772 
 1600000    97.559367            0            0    1.4540297    0.8308376 
 1700000    129.29124            0            0    1.9269631    1.1010734 
 1800000    85.257627            0            0     1.270684   0.72607321 
 1900000    167.49471            0            0    2.4963496    1.4264228 
 2000000    124.81635            0            0    1.8602692    1.0629642 
 2100000    217.31052            0            0    3.2388068    1.8506654 
 2200000     87.12835            0            0    1.2985653   0.74200471 
 2300000     95.01259            0            0    1.4160724   0.80914867 
 2400000    170.73486            0            0    2.5446409    1.4540166 
Loop time of 4.07402 on 1 procs for 1000000 steps with 6 atoms

Performance: 42415.078 ns/day, 0.001 hours/ns, 245457.629 timesteps/s
99.1% CPU use with 1 MPI tasks x 1 OpenMP threads

MPI task timing breakdown:
Section |  min time  |  avg time  |  max time  |%varavg| %total
---------------------------------------------------------------
Pair    | 0.036403   | 0.036403   | 0.036403   |   0.0 |  0.89
Neigh   | 0.0086513  | 0.0086513  | 0.0086513  |   0.0 |  0.21
Comm    | 0.078983   | 0.078983   | 0.078983   |   0.0 |  1.94
Output  | 0.00012708 | 0.00012708 | 0.00012708 |   0.0 |  0.00
Modify  | 3.8655     | 3.8655     | 3.8655     |   0.0 | 94.88
Other   |            | 0.08434    |            |       |  2.07

Nlocal:        6.00000 ave           6 max           6 min
Histogram: 1 0 0 0 0 0 0 0 0 0
Nghost:        2.00000 ave           2 max           2 min
Histogram: 1 0 0 0 0 0 0 0 0 0
Neighs:         0.00000 ave           0 max           0 min
Histogram: 1 0 0 0 0 0 0 0 0 0

Total # of neighbors = 0
Ave neighs/atom = 0.0000000
Neighbor list builds = 4361
Dangerous builds = 0
unfix myat1
next a
jump SELF loop
variable xdes equal ${a}-25
variable xdes equal 3-25
variable xave equal xcm(topull,x)
fix mytth topull spring tether ${k} ${xdes} 0 0 0
fix mytth topull spring tether 1.5 ${xdes} 0 0 0
fix mytth topull spring tether 1.5 -22 0 0 0
run 200000 # equilibrate
Per MPI rank memory allocation (min/avg/max) = 4.588 | 4.588 | 4.588 Mbytes
Step Temp E_pair E_mol TotEng Press 
 2400000    170.73486            0            0    2.5446409    1.4540166 
 2500000     157.9098            0            0    2.3534956    1.3447955 
 2600000    139.50052            0            0    2.0791227    1.1880179 
Loop time of 0.78483 on 1 procs for 200000 steps with 6 atoms

Performance: 44035.039 ns/day, 0.001 hours/ns, 254832.400 timesteps/s
100.0% CPU use with 1 MPI tasks x 1 OpenMP threads

MPI task timing breakdown:
Section |  min time  |  avg time  |  max time  |%varavg| %total
---------------------------------------------------------------
Pair    | 0.0068845  | 0.0068845  | 0.0068845  |   0.0 |  0.88
Neigh   | 0.0016542  | 0.0016542  | 0.0016542  |   0.0 |  0.21
Comm    | 0.014682   | 0.014682   | 0.014682   |   0.0 |  1.87
Output  | 2.3317e-05 | 2.3317e-05 | 2.3317e-05 |   0.0 |  0.00
Modify  | 0.74529    | 0.74529    | 0.74529    |   0.0 | 94.96
Other   |            | 0.01629    |            |       |  2.08

Nlocal:        6.00000 ave           6 max           6 min
Histogram: 1 0 0 0 0 0 0 0 0 0
Nghost:        6.00000 ave           6 max           6 min
Histogram: 1 0 0 0 0 0 0 0 0 0
Neighs:         0.00000 ave           0 max           0 min
Histogram: 1 0 0 0 0 0 0 0 0 0

Total # of neighbors = 0
Ave neighs/atom = 0.0000000
Neighbor list builds = 869
Dangerous builds = 0
fix myat1 all ave/time 10 10 100 v_xave v_xdes file position.${a}.dat
fix myat1 all ave/time 10 10 100 v_xave v_xdes file position.3.dat
run 1000000 # data aquisition
Per MPI rank memory allocation (min/avg/max) = 4.588 | 4.588 | 4.588 Mbytes
Step Temp E_pair E_mol TotEng Press 
 2600000    139.50052            0            0    2.0791227    1.1880179 
 2700000    107.52087            0            0    1.6024964   0.91567197 
 2800000    141.74465            0            0    2.1125694    1.2071295 
 2900000    129.55782            0            0    1.9309362    1.1033436 
 3000000    114.36661            0            0    1.7045257   0.97397187 
 3100000    100.21621            0            0    1.4936274   0.85346386 
 3200000    31.739201            0            0   0.47304265    0.2702982 
 3300000    236.43349            0            0    3.5238166     2.013521 
 3400000    215.56038            0            0    3.2127228    1.8357609 
 3500000    132.49113            0            0    1.9746544    1.1283244 
 3600000    198.19382            0            0    2.9538906    1.6878633 
Loop time of 4.13792 on 1 procs for 1000000 steps with 6 atoms

Performance: 41760.145 ns/day, 0.001 hours/ns, 241667.506 timesteps/s
99.3% CPU use with 1 MPI tasks x 1 OpenMP threads

MPI task timing breakdown:
Section |  min time  |  avg time  |  max time  |%varavg| %total
---------------------------------------------------------------
Pair    | 0.037641   | 0.037641   | 0.037641   |   0.0 |  0.91
Neigh   | 0.0089807  | 0.0089807  | 0.0089807  |   0.0 |  0.22
Comm    | 0.079365   | 0.079365   | 0.079365   |   0.0 |  1.92
Output  | 0.00013795 | 0.00013795 | 0.00013795 |   0.0 |  0.00
Modify  | 3.927      | 3.927      | 3.927      |   0.0 | 94.90
Other   |            | 0.08484    |            |       |  2.05

Nlocal:        6.00000 ave           6 max           6 min
Histogram: 1 0 0 0 0 0 0 0 0 0
Nghost:        3.00000 ave           3 max           3 min
Histogram: 1 0 0 0 0 0 0 0 0 0
Neighs:        1.00000 ave           1 max           1 min
Histogram: 1 0 0 0 0 0 0 0 0 0

Total # of neighbors = 1
Ave neighs/atom = 0.16666667
Neighbor list builds = 4406
Dangerous builds = 0
unfix myat1
next a
jump SELF loop
variable xdes equal ${a}-25
variable xdes equal 4-25
variable xave equal xcm(topull,x)
fix mytth topull spring tether ${k} ${xdes} 0 0 0
fix mytth topull spring tether 1.5 ${xdes} 0 0 0
fix mytth topull spring tether 1.5 -21 0 0 0
run 200000 # equilibrate
Per MPI rank memory allocation (min/avg/max) = 4.588 | 4.588 | 4.588 Mbytes
Step Temp E_pair E_mol TotEng Press 
 3600000    198.19382            0            0    2.9538906    1.6878633 
 3700000    126.92882            0            0    1.8917535    1.0809545 
 3800000    192.99148            0            0    2.8763547     1.643559 
Loop time of 0.802558 on 1 procs for 200000 steps with 6 atoms

Performance: 43062.304 ns/day, 0.001 hours/ns, 249203.146 timesteps/s
99.9% CPU use with 1 MPI tasks x 1 OpenMP threads

MPI task timing breakdown:
Section |  min time  |  avg time  |  max time  |%varavg| %total
---------------------------------------------------------------
Pair    | 0.0075885  | 0.0075885  | 0.0075885  |   0.0 |  0.95
Neigh   | 0.0017638  | 0.0017638  | 0.0017638  |   0.0 |  0.22
Comm    | 0.01508    | 0.01508    | 0.01508    |   0.0 |  1.88
Output  | 3.6703e-05 | 3.6703e-05 | 3.6703e-05 |   0.0 |  0.00
Modify  | 0.76142    | 0.76142    | 0.76142    |   0.0 | 94.87
Other   |            | 0.01666    |            |       |  2.08

Nlocal:        6.00000 ave           6 max           6 min
Histogram: 1 0 0 0 0 0 0 0 0 0
Nghost:        11.0000 ave          11 max          11 min
Histogram: 1 0 0 0 0 0 0 0 0 0
Neighs:         0.00000 ave           0 max           0 min
Histogram: 1 0 0 0 0 0 0 0 0 0

Total # of neighbors = 0
Ave neighs/atom = 0.0000000
Neighbor list builds = 883
Dangerous builds = 0
fix myat1 all ave/time 10 10 100 v_xave v_xdes file position.${a}.dat
fix myat1 all ave/time 10 10 100 v_xave v_xdes file position.4.dat
run 1000000 # data aquisition
Per MPI rank memory allocation (min/avg/max) = 4.588 | 4.588 | 4.588 Mbytes
Step Temp E_pair E_mol TotEng Press 
 3800000    192.99148            0            0    2.8763547     1.643559 
 3900000    119.30826  0.049246169            0    1.8274225    1.5560592 
 4000000    120.27112            0            0    1.7925268     1.024256 
 4100000    135.32089            0            0    2.0168294    1.1524233 
 4200000    164.58719            0            0    2.4530157    1.4016617 
 4300000      113.989            0            0    1.6988977   0.97075603 
 4400000    111.16349            0            0    1.6567863   0.94669341 
 4500000    178.88144            0            0     2.666058    1.5233948 
 4600000      90.5438            0            0    1.3494693   0.77109145 
 4700000    175.19247            0            0    2.6110774    1.4919787 
 4800000    178.68784            0            0    2.6631726     1.521746 
Loop time of 4.10698 on 1 procs for 1000000 steps with 6 atoms

Performance: 42074.736 ns/day, 0.001 hours/ns, 243488.056 timesteps/s
99.0% CPU use with 1 MPI tasks x 1 OpenMP threads

MPI task timing breakdown:
Section |  min time  |  avg time  |  max time  |%varavg| %total
---------------------------------------------------------------
Pair    | 0.038253   | 0.038253   | 0.038253   |   0.0 |  0.93
Neigh   | 0.008647   | 0.008647   | 0.008647   |   0.0 |  0.21
Comm    | 0.074881   | 0.074881   | 0.074881   |   0.0 |  1.82
Output  | 0.00013864 | 0.00013864 | 0.00013864 |   0.0 |  0.00
Modify  | 3.8999     | 3.8999     | 3.8999     |   0.0 | 94.96
Other   |            | 0.08512    |            |       |  2.07

Nlocal:        6.00000 ave           6 max           6 min
Histogram: 1 0 0 0 0 0 0 0 0 0
Nghost:        10.0000 ave          10 max          10 min
Histogram: 1 0 0 0 0 0 0 0 0 0
Neighs:         0.00000 ave           0 max           0 min
Histogram: 1 0 0 0 0 0 0 0 0 0

Total # of neighbors = 0
Ave neighs/atom = 0.0000000
Neighbor list builds = 4356
Dangerous builds = 0
unfix myat1
next a
jump SELF loop
variable xdes equal ${a}-25
variable xdes equal 5-25
variable xave equal xcm(topull,x)
fix mytth topull spring tether ${k} ${xdes} 0 0 0
fix mytth topull spring tether 1.5 ${xdes} 0 0 0
fix mytth topull spring tether 1.5 -20 0 0 0
run 200000 # equilibrate
Per MPI rank memory allocation (min/avg/max) = 4.588 | 4.588 | 4.588 Mbytes
Step Temp E_pair E_mol TotEng Press 
 4800000    178.68784            0            0    2.6631726     1.521746 
 4900000      97.4802            0            0    1.4528498    0.8301634 
 5000000    151.64331            0            0    2.2600995    1.2914287 
Loop time of 0.801265 on 1 procs for 200000 steps with 6 atoms

Performance: 43131.810 ns/day, 0.001 hours/ns, 249605.379 timesteps/s
100.0% CPU use with 1 MPI tasks x 1 OpenMP threads

MPI task timing breakdown:
Section |  min time  |  avg time  |  max time  |%varavg| %total
---------------------------------------------------------------
Pair    | 0.0077342  | 0.0077342  | 0.0077342  |   0.0 |  0.97
Neigh   | 0.0017337  | 0.0017337  | 0.0017337  |   0.0 |  0.22
Comm    | 0.015082   | 0.015082   | 0.015082   |   0.0 |  1.88
Output  | 4.9842e-05 | 4.9842e-05 | 4.9842e-05 |   0.0 |  0.01
Modify  | 0.76001    | 0.76001    | 0.76001    |   0.0 | 94.85
Other   |            | 0.01666    |            |       |  2.08

Nlocal:        6.00000 ave           6 max           6 min
Histogram: 1 0 0 0 0 0 0 0 0 0
Nghost:        6.00000 ave           6 max           6 min
Histogram: 1 0 0 0 0 0 0 0 0 0
Neighs:         0.00000 ave           0 max           0 min
Histogram: 1 0 0 0 0 0 0 0 0 0

Total # of neighbors = 0
Ave neighs/atom = 0.0000000
Neighbor list builds = 886
Dangerous builds = 0
fix myat1 all ave/time 10 10 100 v_xave v_xdes file position.${a}.dat
fix myat1 all ave/time 10 10 100 v_xave v_xdes file position.5.dat
run 1000000 # data aquisition
Per MPI rank memory allocation (min/avg/max) = 4.588 | 4.588 | 4.588 Mbytes
Step Temp E_pair E_mol TotEng Press 
 5000000    151.64331            0            0    2.2600995    1.2914287 
 5100000     195.9013            0            0    2.9197229    1.6683397 
 5200000    207.53813 0.0091254157            0    3.1022841    1.9585024 
 5300000    201.04603            0            0    2.9964002    1.7121534 
 5400000     164.4469            0            0    2.4509249     1.400467 
 5500000    153.79638            0            0     2.292189    1.3097647 
 5600000    152.39743            0            0     2.271339    1.2978509 
 5700000    168.83119            0            0    2.5162686    1.4378046 
 5800000    151.56437            0            0    2.2589229    1.2907564 
 5900000    177.21749            0            0    2.6412584    1.5092242 
 6000000     100.2926            0            0     1.494766   0.85411446 
Loop time of 4.12218 on 1 procs for 1000000 steps with 6 atoms

Performance: 41919.528 ns/day, 0.001 hours/ns, 242589.858 timesteps/s
99.0% CPU use with 1 MPI tasks x 1 OpenMP threads

MPI task timing breakdown:
Section |  min time  |  avg time  |  max time  |%varavg| %total
---------------------------------------------------------------
Pair    | 0.037038   | 0.037038   | 0.037038   |   0.0 |  0.90
Neigh   | 0.0088796  | 0.0088796  | 0.0088796  |   0.0 |  0.22
Comm    | 0.083939   | 0.083939   | 0.083939   |   0.0 |  2.04
Output  | 0.00011674 | 0.00011674 | 0.00011674 |   0.0 |  0.00
Modify  | 3.9067     | 3.9067     | 3.9067     |   0.0 | 94.77
Other   |            | 0.0855     |            |       |  2.07

Nlocal:        6.00000 ave           6 max           6 min
Histogram: 1 0 0 0 0 0 0 0 0 0
Nghost:        14.0000 ave          14 max          14 min
Histogram: 1 0 0 0 0 0 0 0 0 0
Neighs:         0.00000 ave           0 max           0 min
Histogram: 1 0 0 0 0 0 0 0 0 0

Total # of neighbors = 0
Ave neighs/atom = 0.0000000
Neighbor list builds = 4402
Dangerous builds = 0
unfix myat1
next a
jump SELF loop
variable xdes equal ${a}-25
variable xdes equal 6-25
variable xave equal xcm(topull,x)
fix mytth topull spring tether ${k} ${xdes} 0 0 0
fix mytth topull spring tether 1.5 ${xdes} 0 0 0
fix mytth topull spring tether 1.5 -19 0 0 0
run 200000 # equilibrate
Per MPI rank memory allocation (min/avg/max) = 4.588 | 4.588 | 4.588 Mbytes
Step Temp E_pair E_mol TotEng Press 
 6000000     100.2926            0            0     1.494766   0.85411446 
 6100000    160.52481            0            0    2.3924699    1.3670656 
 6200000    108.60257            0            0    1.6186181   0.92488398 
Loop time of 0.805356 on 1 procs for 200000 steps with 6 atoms

Performance: 42912.690 ns/day, 0.001 hours/ns, 248337.324 timesteps/s
100.0% CPU use with 1 MPI tasks x 1 OpenMP threads

MPI task timing breakdown:
Section |  min time  |  avg time  |  max time  |%varavg| %total
---------------------------------------------------------------
Pair    | 0.0071963  | 0.0071963  | 0.0071963  |   0.0 |  0.89
Neigh   | 0.0016836  | 0.0016836  | 0.0016836  |   0.0 |  0.21
Comm    | 0.016303   | 0.016303   | 0.016303   |   0.0 |  2.02
Output  | 2.9872e-05 | 2.9872e-05 | 2.9872e-05 |   0.0 |  0.00
Modify  | 0.76337    | 0.76337    | 0.76337    |   0.0 | 94.79
Other   |            | 0.01678    |            |       |  2.08

Nlocal:        6.00000 ave           6 max           6 min
Histogram: 1 0 0 0 0 0 0 0 0 0
Nghost:        9.00000 ave           9 max           9 min
Histogram: 1 0 0 0 0 0 0 0 0 0
Neighs:         0.00000 ave           0 max           0 min
Histogram: 1 0 0 0 0 0 0 0 0 0

Total # of neighbors = 0
Ave neighs/atom = 0.0000000
Neighbor list builds = 855
Dangerous builds = 0
fix myat1 all ave/time 10 10 100 v_xave v_xdes file position.${a}.dat
fix myat1 all ave/time 10 10 100 v_xave v_xdes file position.6.dat
run 1000000 # data aquisition
Per MPI rank memory allocation (min/avg/max) = 4.588 | 4.588 | 4.588 Mbytes
Step Temp E_pair E_mol TotEng Press 
 6200000    108.60257            0            0    1.6186181   0.92488398 
 6300000    142.00711            0            0    2.1164811    1.2093646 
 6400000    175.12569            0            0     2.610082    1.4914099 
 6500000    153.61059            0            0    2.2894199    1.3081825 
 6600000    133.83723            0            0    1.9947168    1.1397881 
 6700000    153.84702            0            0    2.2929438     1.310196 
 6800000    159.04755            0            0    2.3704527    1.3544848 
 6900000    222.07293            0            0    3.3097862    1.8912233 
 7000000    188.60696            0            0    2.8110077    1.6062195 
 7100000    139.35432            0            0    2.0769438    1.1867729 
 7200000    174.38862            0            0    2.5990967    1.4851328 
Loop time of 4.03852 on 1 procs for 1000000 steps with 6 atoms

Performance: 42787.966 ns/day, 0.001 hours/ns, 247615.543 timesteps/s
99.2% CPU use with 1 MPI tasks x 1 OpenMP threads

MPI task timing breakdown:
Section |  min time  |  avg time  |  max time  |%varavg| %total
---------------------------------------------------------------
Pair    | 0.036984   | 0.036984   | 0.036984   |   0.0 |  0.92
Neigh   | 0.0086191  | 0.0086191  | 0.0086191  |   0.0 |  0.21
Comm    | 0.071043   | 0.071043   | 0.071043   |   0.0 |  1.76
Output  | 0.00010331 | 0.00010331 | 0.00010331 |   0.0 |  0.00
Modify  | 3.8382     | 3.8382     | 3.8382     |   0.0 | 95.04
Other   |            | 0.0836     |            |       |  2.07

Nlocal:        6.00000 ave           6 max           6 min
Histogram: 1 0 0 0 0 0 0 0 0 0
Nghost:        2.00000 ave           2 max           2 min
Histogram: 1 0 0 0 0 0 0 0 0 0
Neighs:         0.00000 ave           0 max           0 min
Histogram: 1 0 0 0 0 0 0 0 0 0

Total # of neighbors = 0
Ave neighs/atom = 0.0000000
Neighbor list builds = 4361
Dangerous builds = 0
unfix myat1
next a
jump SELF loop
variable xdes equal ${a}-25
variable xdes equal 7-25
variable xave equal xcm(topull,x)
fix mytth topull spring tether ${k} ${xdes} 0 0 0
fix mytth topull spring tether 1.5 ${xdes} 0 0 0
fix mytth topull spring tether 1.5 -18 0 0 0
run 200000 # equilibrate
Per MPI rank memory allocation (min/avg/max) = 4.588 | 4.588 | 4.588 Mbytes
Step Temp E_pair E_mol TotEng Press 
 7200000    174.38862            0            0    2.5990967    1.4851328 
 7300000     52.61454            0            0   0.78416974    0.4480773 
 7400000    135.71254            0            0    2.0226665    1.1557586 
Loop time of 0.79933 on 1 procs for 200000 steps with 6 atoms

Performance: 43236.226 ns/day, 0.001 hours/ns, 250209.643 timesteps/s
100.0% CPU use with 1 MPI tasks x 1 OpenMP threads

MPI task timing breakdown:
Section |  min time  |  avg time  |  max time  |%varavg| %total
---------------------------------------------------------------
Pair    | 0.007199   | 0.007199   | 0.007199   |   0.0 |  0.90
Neigh   | 0.0017145  | 0.0017145  | 0.0017145  |   0.0 |  0.21
Comm    | 0.01538    | 0.01538    | 0.01538    |   0.0 |  1.92
Output  | 2.1537e-05 | 2.1537e-05 | 2.1537e-05 |   0.0 |  0.00
Modify  | 0.75838    | 0.75838    | 0.75838    |   0.0 | 94.88
Other   |            | 0.01664    |            |       |  2.08

Nlocal:        6.00000 ave           6 max           6 min
Histogram: 1 0 0 0 0 0 0 0 0 0
Nghost:        7.00000 ave           7 max           7 min
Histogram: 1 0 0 0 0 0 0 0 0 0
Neighs:         0.00000 ave           0 max           0 min
Histogram: 1 0 0 0 0 0 0 0 0 0

Total # of neighbors = 0
Ave neighs/atom = 0.0000000
Neighbor list builds = 871
Dangerous builds = 0
fix myat1 all ave/time 10 10 100 v_xave v_xdes file position.${a}.dat
fix myat1 all ave/time 10 10 100 v_xave v_xdes file position.7.dat
run 1000000 # data aquisition
Per MPI rank memory allocation (min/avg/max) = 4.588 | 4.588 | 4.588 Mbytes
Step Temp E_pair E_mol TotEng Press 
 7400000    135.71254            0            0    2.0226665    1.1557586 
 7500000    169.51866            0            0    2.5265147    1.4436592 
 7600000    166.58321            0            0    2.4827645    1.4186602 
 7700000    190.66512            0            0    2.8416825    1.6237472 
 7800000    100.09961            0            0    1.4918896    0.8524709 
 7900000    139.65699            0            0    2.0814549    1.1893505 
 8000000    99.383556            0            0    1.4812175   0.84637281 
 8100000    70.436375            0            0    1.0497873   0.59985208 
 8200000    108.53898            0            0    1.6176705    0.9243425 
 8300000    122.80966            0            0    1.8303613    1.0458748 
 8400000    87.801933            0            0    1.3086044   0.74774109 
Loop time of 4.08437 on 1 procs for 1000000 steps with 6 atoms

Performance: 42307.602 ns/day, 0.001 hours/ns, 244835.662 timesteps/s
99.0% CPU use with 1 MPI tasks x 1 OpenMP threads

MPI task timing breakdown:
Section |  min time  |  avg time  |  max time  |%varavg| %total
---------------------------------------------------------------
Pair    | 0.036816   | 0.036816   | 0.036816   |   0.0 |  0.90
Neigh   | 0.0085612  | 0.0085612  | 0.0085612  |   0.0 |  0.21
Comm    | 0.078799   | 0.078799   | 0.078799   |   0.0 |  1.93
Output  | 0.00014545 | 0.00014545 | 0.00014545 |   0.0 |  0.00
Modify  | 3.8754     | 3.8754     | 3.8754     |   0.0 | 94.88
Other   |            | 0.0846     |            |       |  2.07

Nlocal:        6.00000 ave           6 max           6 min
Histogram: 1 0 0 0 0 0 0 0 0 0
Nghost:        5.00000 ave           5 max           5 min
Histogram: 1 0 0 0 0 0 0 0 0 0
Neighs:         0.00000 ave           0 max           0 min
Histogram: 1 0 0 0 0 0 0 0 0 0

Total # of neighbors = 0
Ave neighs/atom = 0.0000000
Neighbor list builds = 4355
Dangerous builds = 0
unfix myat1
next a
jump SELF loop
variable xdes equal ${a}-25
variable xdes equal 8-25
variable xave equal xcm(topull,x)
fix mytth topull spring tether ${k} ${xdes} 0 0 0
fix mytth topull spring tether 1.5 ${xdes} 0 0 0
fix mytth topull spring tether 1.5 -17 0 0 0
run 200000 # equilibrate
Per MPI rank memory allocation (min/avg/max) = 4.588 | 4.588 | 4.588 Mbytes
Step Temp E_pair E_mol TotEng Press 
 8400000    87.801933            0            0    1.3086044   0.74774109 
 8500000    151.35005            0            0    2.2557288    1.2889312 
 8600000    131.39174            0            0    1.9582691    1.1189617 
Loop time of 0.842818 on 1 procs for 200000 steps with 6 atoms

Performance: 41005.302 ns/day, 0.001 hours/ns, 237299.201 timesteps/s
99.4% CPU use with 1 MPI tasks x 1 OpenMP threads

MPI task timing breakdown:
Section |  min time  |  avg time  |  max time  |%varavg| %total
---------------------------------------------------------------
Pair    | 0.0075077  | 0.0075077  | 0.0075077  |   0.0 |  0.89
Neigh   | 0.0018312  | 0.0018312  | 0.0018312  |   0.0 |  0.22
Comm    | 0.016811   | 0.016811   | 0.016811   |   0.0 |  1.99
Output  | 3.931e-05  | 3.931e-05  | 3.931e-05  |   0.0 |  0.00
Modify  | 0.79906    | 0.79906    | 0.79906    |   0.0 | 94.81
Other   |            | 0.01757    |            |       |  2.08

Nlocal:        6.00000 ave           6 max           6 min
Histogram: 1 0 0 0 0 0 0 0 0 0
Nghost:        3.00000 ave           3 max           3 min
Histogram: 1 0 0 0 0 0 0 0 0 0
Neighs:        1.00000 ave           1 max           1 min
Histogram: 1 0 0 0 0 0 0 0 0 0

Total # of neighbors = 1
Ave neighs/atom = 0.16666667
Neighbor list builds = 864
Dangerous builds = 0
fix myat1 all ave/time 10 10 100 v_xave v_xdes file position.${a}.dat
fix myat1 all ave/time 10 10 100 v_xave v_xdes file position.8.dat
run 1000000 # data aquisition
Per MPI rank memory allocation (min/avg/max) = 4.588 | 4.588 | 4.588 Mbytes
Step Temp E_pair E_mol TotEng Press 
 8600000    131.39174            0            0    1.9582691    1.1189617 
 8700000     145.9686            0            0    2.1755234    1.2431016 
 8800000    128.33691            0            0    1.9127398    1.0929461 
 8900000    104.95319            0            0    1.5642277   0.89380509 
 9000000    138.75544            0            0    2.0680181    1.1816727 
 9100000    183.54915            0            0    2.7356258     1.563146 
 9200000    233.72523            0            0    3.4834525    1.9904568 
 9300000    73.593948            0            0    1.0968479   0.62674268 
 9400000    108.59962            0            0    1.6185742   0.92485891 
 9500000     177.9302            0            0    2.6518807    1.5152938 
 9600000    192.68225            0            0    2.8717459    1.6409255 
Loop time of 4.32267 on 1 procs for 1000000 steps with 6 atoms

Performance: 39975.299 ns/day, 0.001 hours/ns, 231338.534 timesteps/s
99.2% CPU use with 1 MPI tasks x 1 OpenMP threads

MPI task timing breakdown:
Section |  min time  |  avg time  |  max time  |%varavg| %total
---------------------------------------------------------------
Pair    | 0.038246   | 0.038246   | 0.038246   |   0.0 |  0.88
Neigh   | 0.0092453  | 0.0092453  | 0.0092453  |   0.0 |  0.21
Comm    | 0.082103   | 0.082103   | 0.082103   |   0.0 |  1.90
Output  | 0.00018439 | 0.00018439 | 0.00018439 |   0.0 |  0.00
Modify  | 4.1038     | 4.1038     | 4.1038     |   0.0 | 94.94
Other   |            | 0.08907    |            |       |  2.06

Nlocal:        6.00000 ave           6 max           6 min
Histogram: 1 0 0 0 0 0 0 0 0 0
Nghost:        12.0000 ave          12 max          12 min
Histogram: 1 0 0 0 0 0 0 0 0 0
Neighs:         0.00000 ave           0 max           0 min
Histogram: 1 0 0 0 0 0 0 0 0 0

Total # of neighbors = 0
Ave neighs/atom = 0.0000000
Neighbor list builds = 4350
Dangerous builds = 0
unfix myat1
next a
jump SELF loop
variable xdes equal ${a}-25
variable xdes equal 9-25
variable xave equal xcm(topull,x)
fix mytth topull spring tether ${k} ${xdes} 0 0 0
fix mytth topull spring tether 1.5 ${xdes} 0 0 0
fix mytth topull spring tether 1.5 -16 0 0 0
run 200000 # equilibrate
Per MPI rank memory allocation (min/avg/max) = 4.588 | 4.588 | 4.588 Mbytes
Step Temp E_pair E_mol TotEng Press 
 9600000    192.68225            0            0    2.8717459    1.6409255 
 9700000    100.80062            0            0    1.5023375   0.85844087 
 9800000    157.88724            0            0    2.3531594    1.3446034 
Loop time of 0.851804 on 1 procs for 200000 steps with 6 atoms

Performance: 40572.733 ns/day, 0.001 hours/ns, 234795.909 timesteps/s
100.0% CPU use with 1 MPI tasks x 1 OpenMP threads

MPI task timing breakdown:
Section |  min time  |  avg time  |  max time  |%varavg| %total
---------------------------------------------------------------
Pair    | 0.0080007  | 0.0080007  | 0.0080007  |   0.0 |  0.94
Neigh   | 0.0018206  | 0.0018206  | 0.0018206  |   0.0 |  0.21
Comm    | 0.015302   | 0.015302   | 0.015302   |   0.0 |  1.80
Output  | 3.7019e-05 | 3.7019e-05 | 3.7019e-05 |   0.0 |  0.00
Modify  | 0.80898    | 0.80898    | 0.80898    |   0.0 | 94.97
Other   |            | 0.01766    |            |       |  2.07

Nlocal:        6.00000 ave           6 max           6 min
Histogram: 1 0 0 0 0 0 0 0 0 0
Nghost:        3.00000 ave           3 max           3 min
Histogram: 1 0 0 0 0 0 0 0 0 0
Neighs:         0.00000 ave           0 max           0 min
Histogram: 1 0 0 0 0 0 0 0 0 0

Total # of neighbors = 0
Ave neighs/atom = 0.0000000
Neighbor list builds = 866
Dangerous builds = 0
fix myat1 all ave/time 10 10 100 v_xave v_xdes file position.${a}.dat
fix myat1 all ave/time 10 10 100 v_xave v_xdes file position.9.dat
run 1000000 # data aquisition
Per MPI rank memory allocation (min/avg/max) = 4.588 | 4.588 | 4.588 Mbytes
Step Temp E_pair E_mol TotEng Press 
 9800000    157.88724            0            0    2.3531594    1.3446034 
 9900000    165.49905            0            0    2.4666061    1.4094273 
10000000    132.39091            0            0    1.9731607    1.1274709 
10100000    171.77924            0            0    2.5602064    1.4629108 
10200000     194.6259  0.043551538            0    2.9442658    2.1558385 
10300000    149.17638            0            0    2.2233322    1.2704197 
10400000    134.85476            0            0    2.0098821    1.1484536 
10500000    295.22234            0            0    4.4000085    2.5141801 
10600000    203.14151            0            0    3.0276313     1.729999 
10700000    183.93104            0            0    2.7413175    1.5663983 
10800000    318.12957            0            0    4.7414192    2.7092633 
Loop time of 4.32822 on 1 procs for 1000000 steps with 6 atoms

Performance: 39924.014 ns/day, 0.001 hours/ns, 231041.750 timesteps/s
99.4% CPU use with 1 MPI tasks x 1 OpenMP threads

MPI task timing breakdown:
Section |  min time  |  avg time  |  max time  |%varavg| %total
---------------------------------------------------------------
Pair    | 0.039079   | 0.039079   | 0.039079   |   0.0 |  0.90
Neigh   | 0.0093103  | 0.0093103  | 0.0093103  |   0.0 |  0.22
Comm    | 0.082082   | 0.082082   | 0.082082   |   0.0 |  1.90
Output  | 0.00013409 | 0.00013409 | 0.00013409 |   0.0 |  0.00
Modify  | 4.1082     | 4.1082     | 4.1082     |   0.0 | 94.92
Other   |            | 0.08938    |            |       |  2.07

Nlocal:        6.00000 ave           6 max           6 min
Histogram: 1 0 0 0 0 0 0 0 0 0
Nghost:        2.00000 ave           2 max           2 min
Histogram: 1 0 0 0 0 0 0 0 0 0
Neighs:         0.00000 ave           0 max           0 min
Histogram: 1 0 0 0 0 0 0 0 0 0

Total # of neighbors = 0
Ave neighs/atom = 0.0000000
Neighbor list builds = 4389
Dangerous builds = 0
unfix myat1
next a
jump SELF loop
variable xdes equal ${a}-25
variable xdes equal 10-25
variable xave equal xcm(topull,x)
fix mytth topull spring tether ${k} ${xdes} 0 0 0
fix mytth topull spring tether 1.5 ${xdes} 0 0 0
fix mytth topull spring tether 1.5 -15 0 0 0
run 200000 # equilibrate
Per MPI rank memory allocation (min/avg/max) = 4.588 | 4.588 | 4.588 Mbytes
Step Temp E_pair E_mol TotEng Press 
10800000    318.12957            0            0    4.7414192    2.7092633 
10900000    119.51402            0            0     1.781243    1.0178084 
11000000    124.81833            0            0    1.8602987    1.0629811 
Loop time of 0.848019 on 1 procs for 200000 steps with 6 atoms

Performance: 40753.812 ns/day, 0.001 hours/ns, 235843.817 timesteps/s
100.0% CPU use with 1 MPI tasks x 1 OpenMP threads

MPI task timing breakdown:
Section |  min time  |  avg time  |  max time  |%varavg| %total
---------------------------------------------------------------
Pair    | 0.0075932  | 0.0075932  | 0.0075932  |   0.0 |  0.90
Neigh   | 0.0018043  | 0.0018043  | 0.0018043  |   0.0 |  0.21
Comm    | 0.01527    | 0.01527    | 0.01527    |   0.0 |  1.80
Output  | 5.5036e-05 | 5.5036e-05 | 5.5036e-05 |   0.0 |  0.01
Modify  | 0.80557    | 0.80557    | 0.80557    |   0.0 | 94.99
Other   |            | 0.01773    |            |       |  2.09

Nlocal:        6.00000 ave           6 max           6 min
Histogram: 1 0 0 0 0 0 0 0 0 0
Nghost:        5.00000 ave           5 max           5 min
Histogram: 1 0 0 0 0 0 0 0 0 0
Neighs:        1.00000 ave           1 max           1 min
Histogram: 1 0 0 0 0 0 0 0 0 0

Total # of neighbors = 1
Ave neighs/atom = 0.16666667
Neighbor list builds = 887
Dangerous builds = 0
fix myat1 all ave/time 10 10 100 v_xave v_xdes file position.${a}.dat
fix myat1 all ave/time 10 10 100 v_xave v_xdes file position.10.dat
run 1000000 # data aquisition
Per MPI rank memory allocation (min/avg/max) = 4.588 | 4.588 | 4.588 Mbytes
Step Temp E_pair E_mol TotEng Press 
11000000    124.81833            0            0    1.8602987    1.0629811 
11100000    130.97284            0            0    1.9520258    1.1153943 
11200000    79.789809            0            0    1.1891913   0.67950804 
11300000    96.969135            0            0    1.4452329   0.82581106 
11400000    129.76474            0            0    1.9340202    1.1051058 
11500000    199.58407            0            0     2.974611     1.699703 
11600000    122.71275            0            0    1.8289171    1.0450495 
11700000    199.17511            0            0    2.9685159    1.6962203 
11800000    183.47317            0            0    2.7344933     1.562499 
11900000    133.13259 0.0087940238            0    1.9930089    1.3207839 
12000000    181.45306            0            0    2.7043856    1.5452953 
Loop time of 4.37228 on 1 procs for 1000000 steps with 6 atoms

Performance: 39521.688 ns/day, 0.001 hours/ns, 228713.475 timesteps/s
99.4% CPU use with 1 MPI tasks x 1 OpenMP threads

MPI task timing breakdown:
Section |  min time  |  avg time  |  max time  |%varavg| %total
---------------------------------------------------------------
Pair    | 0.039448   | 0.039448   | 0.039448   |   0.0 |  0.90
Neigh   | 0.0093413  | 0.0093413  | 0.0093413  |   0.0 |  0.21
Comm    | 0.081567   | 0.081567   | 0.081567   |   0.0 |  1.87
Output  | 0.00016988 | 0.00016988 | 0.00016988 |   0.0 |  0.00
Modify  | 4.1515     | 4.1515     | 4.1515     |   0.0 | 94.95
Other   |            | 0.09029    |            |       |  2.06

Nlocal:        6.00000 ave           6 max           6 min
Histogram: 1 0 0 0 0 0 0 0 0 0
Nghost:        15.0000 ave          15 max          15 min
Histogram: 1 0 0 0 0 0 0 0 0 0
Neighs:         0.00000 ave           0 max           0 min
Histogram: 1 0 0 0 0 0 0 0 0 0

Total # of neighbors = 0
Ave neighs/atom = 0.0000000
Neighbor list builds = 4380
Dangerous builds = 0
unfix myat1
next a
jump SELF loop
variable xdes equal ${a}-25
variable xdes equal 11-25
variable xave equal xcm(topull,x)
fix mytth topull spring tether ${k} ${xdes} 0 0 0
fix mytth topull spring tether 1.5 ${xdes} 0 0 0
fix mytth topull spring tether 1.5 -14 0 0 0
run 200000 # equilibrate
Per MPI rank memory allocation (min/avg/max) = 4.588 | 4.588 | 4.588 Mbytes
Step Temp E_pair E_mol TotEng Press 
12000000    181.45306            0            0    2.7043856    1.5452953 
12100000    155.53343            0            0     2.318078    1.3245578 
12200000    144.22022            0            0    2.1494654    1.2282119 
Loop time of 0.856811 on 1 procs for 200000 steps with 6 atoms

Performance: 40335.617 ns/day, 0.001 hours/ns, 233423.707 timesteps/s
100.0% CPU use with 1 MPI tasks x 1 OpenMP threads

MPI task timing breakdown:
Section |  min time  |  avg time  |  max time  |%varavg| %total
---------------------------------------------------------------
Pair    | 0.0075096  | 0.0075096  | 0.0075096  |   0.0 |  0.88
Neigh   | 0.0018635  | 0.0018635  | 0.0018635  |   0.0 |  0.22
Comm    | 0.017969   | 0.017969   | 0.017969   |   0.0 |  2.10
Output  | 1.8802e-05 | 1.8802e-05 | 1.8802e-05 |   0.0 |  0.00
Modify  | 0.81146    | 0.81146    | 0.81146    |   0.0 | 94.71
Other   |            | 0.01799    |            |       |  2.10

Nlocal:        6.00000 ave           6 max           6 min
Histogram: 1 0 0 0 0 0 0 0 0 0
Nghost:        8.00000 ave           8 max           8 min
Histogram: 1 0 0 0 0 0 0 0 0 0
Neighs:         0.00000 ave           0 max           0 min
Histogram: 1 0 0 0 0 0 0 0 0 0

Total # of neighbors = 0
Ave neighs/atom = 0.0000000
Neighbor list builds = 875
Dangerous builds = 0
fix myat1 all ave/time 10 10 100 v_xave v_xdes file position.${a}.dat
fix myat1 all ave/time 10 10 100 v_xave v_xdes file position.11.dat
run 1000000 # data aquisition
Per MPI rank memory allocation (min/avg/max) = 4.588 | 4.588 | 4.588 Mbytes
Step Temp E_pair E_mol TotEng Press 
12200000    144.22022            0            0    2.1494654    1.2282119 
12300000    114.00824            0            0    1.6991845   0.97091992 
12400000    170.91222            0            0    2.5472843     1.455527 
12500000    124.36377            0            0    1.8535239      1.05911 
12600000    58.087938            0            0   0.86574555      0.49469 
12700000    104.46397            0            0    1.5569363   0.88963877 
12800000    137.75448            0            0    2.0530997    1.1731483 
12900000    192.99382            0            0    2.8763896     1.643579 
13000000    129.51497            0            0    1.9302976    1.1029787 
13100000    55.365929            0            0   0.82517658   0.47150875 
13200000    182.51668            0            0    2.7202377    1.5543533 
Loop time of 4.38358 on 1 procs for 1000000 steps with 6 atoms

Performance: 39419.799 ns/day, 0.001 hours/ns, 228123.836 timesteps/s
99.7% CPU use with 1 MPI tasks x 1 OpenMP threads

MPI task timing breakdown:
Section |  min time  |  avg time  |  max time  |%varavg| %total
---------------------------------------------------------------
Pair    | 0.038779   | 0.038779   | 0.038779   |   0.0 |  0.88
Neigh   | 0.0091813  | 0.0091813  | 0.0091813  |   0.0 |  0.21
Comm    | 0.07777    | 0.07777    | 0.07777    |   0.0 |  1.77
Output  | 0.00013667 | 0.00013667 | 0.00013667 |   0.0 |  0.00
Modify  | 4.1683     | 4.1683     | 4.1683     |   0.0 | 95.09
Other   |            | 0.08944    |            |       |  2.04

Nlocal:        6.00000 ave           6 max           6 min
Histogram: 1 0 0 0 0 0 0 0 0 0
Nghost:        5.00000 ave           5 max           5 min
Histogram: 1 0 0 0 0 0 0 0 0 0
Neighs:         0.00000 ave           0 max           0 min
Histogram: 1 0 0 0 0 0 0 0 0 0

Total # of neighbors = 0
Ave neighs/atom = 0.0000000
Neighbor list builds = 4395
Dangerous builds = 0
unfix myat1
next a
jump SELF loop
variable xdes equal ${a}-25
variable xdes equal 12-25
variable xave equal xcm(topull,x)
fix mytth topull spring tether ${k} ${xdes} 0 0 0
fix mytth topull spring tether 1.5 ${xdes} 0 0 0
fix mytth topull spring tether 1.5 -13 0 0 0
run 200000 # equilibrate
Per MPI rank memory allocation (min/avg/max) = 4.588 | 4.588 | 4.588 Mbytes
Step Temp E_pair E_mol TotEng Press 
13200000    182.51668            0            0    2.7202377    1.5543533 
13300000    121.11184            0            0     1.805057    1.0314158 
13400000    105.11154            0            0    1.5665877    0.8951536 
Loop time of 0.855764 on 1 procs for 200000 steps with 6 atoms

Performance: 40384.946 ns/day, 0.001 hours/ns, 233709.181 timesteps/s
100.0% CPU use with 1 MPI tasks x 1 OpenMP threads

MPI task timing breakdown:
Section |  min time  |  avg time  |  max time  |%varavg| %total
---------------------------------------------------------------
Pair    | 0.0072408  | 0.0072408  | 0.0072408  |   0.0 |  0.85
Neigh   | 0.0017967  | 0.0017967  | 0.0017967  |   0.0 |  0.21
Comm    | 0.015591   | 0.015591   | 0.015591   |   0.0 |  1.82
Output  | 1.3017e-05 | 1.3017e-05 | 1.3017e-05 |   0.0 |  0.00
Modify  | 0.81343    | 0.81343    | 0.81343    |   0.0 | 95.05
Other   |            | 0.0177     |            |       |  2.07

Nlocal:        6.00000 ave           6 max           6 min
Histogram: 1 0 0 0 0 0 0 0 0 0
Nghost:        5.00000 ave           5 max           5 min
Histogram: 1 0 0 0 0 0 0 0 0 0
Neighs:         0.00000 ave           0 max           0 min
Histogram: 1 0 0 0 0 0 0 0 0 0

Total # of neighbors = 0
Ave neighs/atom = 0.0000000
Neighbor list builds = 883
Dangerous builds = 0
fix myat1 all ave/time 10 10 100 v_xave v_xdes file position.${a}.dat
fix myat1 all ave/time 10 10 100 v_xave v_xdes file position.12.dat
run 1000000 # data aquisition
Per MPI rank memory allocation (min/avg/max) = 4.588 | 4.588 | 4.588 Mbytes
Step Temp E_pair E_mol TotEng Press 
13400000    105.11154            0            0    1.5665877    0.8951536 
13500000    154.94204            0            0    2.3092639    1.3195214 
13600000    77.739632            0            0    1.1586354   0.66204826 
13700000    207.77802            0            0    3.0967341    1.7694846 
13800000    100.11699            0            0    1.4921486   0.85261889 
13900000    174.37788            0            0    2.5989367    1.4850414 
14000000    137.32953            0            0    2.0467662    1.1695293 
14100000    184.02893            0            0    2.7427764    1.5672319 
14200000    202.32064            0            0    3.0153969    1.7230082 
14300000    224.54959  0.014188618            0     3.360887    2.1601886 
14400000    201.10498            0            0    2.9972787    1.7126554 
Loop time of 4.29125 on 1 procs for 1000000 steps with 6 atoms

Performance: 40268.019 ns/day, 0.001 hours/ns, 233032.519 timesteps/s
99.2% CPU use with 1 MPI tasks x 1 OpenMP threads

MPI task timing breakdown:
Section |  min time  |  avg time  |  max time  |%varavg| %total
---------------------------------------------------------------
Pair    | 0.037965   | 0.037965   | 0.037965   |   0.0 |  0.88
Neigh   | 0.009271   | 0.009271   | 0.009271   |   0.0 |  0.22
Comm    | 0.085763   | 0.085763   | 0.085763   |   0.0 |  2.00
Output  | 0.0001152  | 0.0001152  | 0.0001152  |   0.0 |  0.00
Modify  | 4.069      | 4.069      | 4.069      |   0.0 | 94.82
Other   |            | 0.08916    |            |       |  2.08

Nlocal:        6.00000 ave           6 max           6 min
Histogram: 1 0 0 0 0 0 0 0 0 0
Nghost:        14.0000 ave          14 max          14 min
Histogram: 1 0 0 0 0 0 0 0 0 0
Neighs:        1.00000 ave           1 max           1 min
Histogram: 1 0 0 0 0 0 0 0 0 0

Total # of neighbors = 1
Ave neighs/atom = 0.16666667
Neighbor list builds = 4389
Dangerous builds = 0
unfix myat1
next a
jump SELF loop
variable xdes equal ${a}-25
variable xdes equal 13-25
variable xave equal xcm(topull,x)
fix mytth topull spring tether ${k} ${xdes} 0 0 0
fix mytth topull spring tether 1.5 ${xdes} 0 0 0
fix mytth topull spring tether 1.5 -12 0 0 0
run 200000 # equilibrate
Per MPI rank memory allocation (min/avg/max) = 4.588 | 4.588 | 4.588 Mbytes
Step Temp E_pair E_mol TotEng Press 
14400000    201.10498            0            0    2.9972787    1.7126554 
14500000    148.36824            0            0    2.2112877    1.2635375 
14600000    157.80462            0            0     2.351928    1.3438998 
Loop time of 0.852301 on 1 procs for 200000 steps with 6 atoms

Performance: 40549.065 ns/day, 0.001 hours/ns, 234658.938 timesteps/s
100.0% CPU use with 1 MPI tasks x 1 OpenMP threads

MPI task timing breakdown:
Section |  min time  |  avg time  |  max time  |%varavg| %total
---------------------------------------------------------------
Pair    | 0.0074959  | 0.0074959  | 0.0074959  |   0.0 |  0.88
Neigh   | 0.0018531  | 0.0018531  | 0.0018531  |   0.0 |  0.22
Comm    | 0.017199   | 0.017199   | 0.017199   |   0.0 |  2.02
Output  | 2.1978e-05 | 2.1978e-05 | 2.1978e-05 |   0.0 |  0.00
Modify  | 0.80801    | 0.80801    | 0.80801    |   0.0 | 94.80
Other   |            | 0.01772    |            |       |  2.08

Nlocal:        6.00000 ave           6 max           6 min
Histogram: 1 0 0 0 0 0 0 0 0 0
Nghost:        7.00000 ave           7 max           7 min
Histogram: 1 0 0 0 0 0 0 0 0 0
Neighs:         0.00000 ave           0 max           0 min
Histogram: 1 0 0 0 0 0 0 0 0 0

Total # of neighbors = 0
Ave neighs/atom = 0.0000000
Neighbor list builds = 872
Dangerous builds = 0
fix myat1 all ave/time 10 10 100 v_xave v_xdes file position.${a}.dat
fix myat1 all ave/time 10 10 100 v_xave v_xdes file position.13.dat
run 1000000 # data aquisition
Per MPI rank memory allocation (min/avg/max) = 4.588 | 4.588 | 4.588 Mbytes
Step Temp E_pair E_mol TotEng Press 
14600000    157.80462            0            0     2.351928    1.3438998 
14700000    67.800456            0            0    1.0105014     0.577404 
14800000    272.85424            0            0    4.0666333    2.3236883 
14900000    149.73428            0            0    2.2316472    1.2751709 
15000000    143.97702            0            0    2.1458407    1.2261408 
15100000    185.33328            0            0    2.7622165    1.5783401 
15200000    240.69091            0            0    3.5872695    2.0497782 
15300000    144.93099            0            0    2.1600588    1.2342651 
15400000    101.70706            0            0    1.5158471   0.86616029 
15500000    177.56326            0            0    2.6464117    1.5121688 
15600000    99.095275            0            0     1.476921   0.84391774 
Loop time of 4.36043 on 1 procs for 1000000 steps with 6 atoms

Performance: 39629.106 ns/day, 0.001 hours/ns, 229335.105 timesteps/s
98.9% CPU use with 1 MPI tasks x 1 OpenMP threads

MPI task timing breakdown:
Section |  min time  |  avg time  |  max time  |%varavg| %total
---------------------------------------------------------------
Pair    | 0.03801    | 0.03801    | 0.03801    |   0.0 |  0.87
Neigh   | 0.0091206  | 0.0091206  | 0.0091206  |   0.0 |  0.21
Comm    | 0.083732   | 0.083732   | 0.083732   |   0.0 |  1.92
Output  | 9.5398e-05 | 9.5398e-05 | 9.5398e-05 |   0.0 |  0.00
Modify  | 4.141      | 4.141      | 4.141      |   0.0 | 94.97
Other   |            | 0.08845    |            |       |  2.03

Nlocal:        6.00000 ave           6 max           6 min
Histogram: 1 0 0 0 0 0 0 0 0 0
Nghost:        9.00000 ave           9 max           9 min
Histogram: 1 0 0 0 0 0 0 0 0 0
Neighs:         0.00000 ave           0 max           0 min
Histogram: 1 0 0 0 0 0 0 0 0 0

Total # of neighbors = 0
Ave neighs/atom = 0.0000000
Neighbor list builds = 4367
Dangerous builds = 0
unfix myat1
next a
jump SELF loop
variable xdes equal ${a}-25
variable xdes equal 14-25
variable xave equal xcm(topull,x)
fix mytth topull spring tether ${k} ${xdes} 0 0 0
fix mytth topull spring tether 1.5 ${xdes} 0 0 0
fix mytth topull spring tether 1.5 -11 0 0 0
run 200000 # equilibrate
Per MPI rank memory allocation (min/avg/max) = 4.588 | 4.588 | 4.588 Mbytes
Step Temp E_pair E_mol TotEng Press 
15600000    99.095275            0            0     1.476921   0.84391774 
15700000    181.23641            0            0    2.7011566    1.5434502 
15800000    141.49686            0            0    2.1088763    1.2050192 
Loop time of 0.857248 on 1 procs for 200000 steps with 6 atoms

Performance: 40315.071 ns/day, 0.001 hours/ns, 233304.810 timesteps/s
100.0% CPU use with 1 MPI tasks x 1 OpenMP threads

MPI task timing breakdown:
Section |  min time  |  avg time  |  max time  |%varavg| %total
---------------------------------------------------------------
Pair    | 0.0073275  | 0.0073275  | 0.0073275  |   0.0 |  0.85
Neigh   | 0.001789   | 0.001789   | 0.001789   |   0.0 |  0.21
Comm    | 0.015987   | 0.015987   | 0.015987   |   0.0 |  1.86
Output  | 1.2484e-05 | 1.2484e-05 | 1.2484e-05 |   0.0 |  0.00
Modify  | 0.81451    | 0.81451    | 0.81451    |   0.0 | 95.01
Other   |            | 0.01762    |            |       |  2.06

Nlocal:        6.00000 ave           6 max           6 min
Histogram: 1 0 0 0 0 0 0 0 0 0
Nghost:        4.00000 ave           4 max           4 min
Histogram: 1 0 0 0 0 0 0 0 0 0
Neighs:         0.00000 ave           0 max           0 min
Histogram: 1 0 0 0 0 0 0 0 0 0

Total # of neighbors = 0
Ave neighs/atom = 0.0000000
Neighbor list builds = 869
Dangerous builds = 0
fix myat1 all ave/time 10 10 100 v_xave v_xdes file position.${a}.dat
fix myat1 all ave/time 10 10 100 v_xave v_xdes file position.14.dat
run 1000000 # data aquisition
Per MPI rank memory allocation (min/avg/max) = 4.588 | 4.588 | 4.588 Mbytes
Step Temp E_pair E_mol TotEng Press 
15800000    141.49686            0            0    2.1088763    1.2050192 
15900000    218.20836            0            0    3.2521883    1.8583116 
16000000    87.009881            0            0    1.2967996    0.7409958 
16100000    195.70068            0            0    2.9167328    1.6666312 
16200000    146.18089            0            0    2.1786873    1.2449094 
16300000    105.50843            0            0     1.572503   0.89853365 
16400000    151.03447            0            0    2.2510253    1.2862436 
16500000    98.837994            0            0    1.4730864   0.84172668 
16600000    97.249675            0            0     1.449414    0.8282002 
16700000    175.05757            0            0    2.6090668    1.4908298 
16800000    118.38354            0            0    1.7643942    1.0081809 
Loop time of 4.28631 on 1 procs for 1000000 steps with 6 atoms

Performance: 40314.391 ns/day, 0.001 hours/ns, 233300.876 timesteps/s
99.4% CPU use with 1 MPI tasks x 1 OpenMP threads

MPI task timing breakdown:
Section |  min time  |  avg time  |  max time  |%varavg| %total
---------------------------------------------------------------
Pair    | 0.037968   | 0.037968   | 0.037968   |   0.0 |  0.89
Neigh   | 0.0094949  | 0.0094949  | 0.0094949  |   0.0 |  0.22
Comm    | 0.080958   | 0.080958   | 0.080958   |   0.0 |  1.89
Output  | 0.00011427 | 0.00011427 | 0.00011427 |   0.0 |  0.00
Modify  | 4.0694     | 4.0694     | 4.0694     |   0.0 | 94.94
Other   |            | 0.08839    |            |       |  2.06

Nlocal:        6.00000 ave           6 max           6 min
Histogram: 1 0 0 0 0 0 0 0 0 0
Nghost:        2.00000 ave           2 max           2 min
Histogram: 1 0 0 0 0 0 0 0 0 0
Neighs:         0.00000 ave           0 max           0 min
Histogram: 1 0 0 0 0 0 0 0 0 0

Total # of neighbors = 0
Ave neighs/atom = 0.0000000
Neighbor list builds = 4390
Dangerous builds = 0
unfix myat1
next a
jump SELF loop
variable xdes equal ${a}-25
variable xdes equal 15-25
variable xave equal xcm(topull,x)
fix mytth topull spring tether ${k} ${xdes} 0 0 0
fix mytth topull spring tether 1.5 ${xdes} 0 0 0
fix mytth topull spring tether 1.5 -10 0 0 0
run 200000 # equilibrate
Per MPI rank memory allocation (min/avg/max) = 4.588 | 4.588 | 4.588 Mbytes
Step Temp E_pair E_mol TotEng Press 
16800000    118.38354            0            0    1.7643942    1.0081809 
16900000    114.47623            0            0    1.7061595   0.97490545 
17000000    132.73499            0            0     1.978289    1.1304012 
Loop time of 0.845229 on 1 procs for 200000 steps with 6 atoms

Performance: 40888.323 ns/day, 0.001 hours/ns, 236622.242 timesteps/s
100.0% CPU use with 1 MPI tasks x 1 OpenMP threads

MPI task timing breakdown:
Section |  min time  |  avg time  |  max time  |%varavg| %total
---------------------------------------------------------------
Pair    | 0.0074754  | 0.0074754  | 0.0074754  |   0.0 |  0.88
Neigh   | 0.0018049  | 0.0018049  | 0.0018049  |   0.0 |  0.21
Comm    | 0.014536   | 0.014536   | 0.014536   |   0.0 |  1.72
Output  | 4.9051e-05 | 4.9051e-05 | 4.9051e-05 |   0.0 |  0.01
Modify  | 0.80388    | 0.80388    | 0.80388    |   0.0 | 95.11
Other   |            | 0.01749    |            |       |  2.07

Nlocal:        6.00000 ave           6 max           6 min
Histogram: 1 0 0 0 0 0 0 0 0 0
Nghost:        5.00000 ave           5 max           5 min
Histogram: 1 0 0 0 0 0 0 0 0 0
Neighs:         0.00000 ave           0 max           0 min
Histogram: 1 0 0 0 0 0 0 0 0 0

Total # of neighbors = 0
Ave neighs/atom = 0.0000000
Neighbor list builds = 880
Dangerous builds = 0
fix myat1 all ave/time 10 10 100 v_xave v_xdes file position.${a}.dat
fix myat1 all ave/time 10 10 100 v_xave v_xdes file position.15.dat
run 1000000 # data aquisition
Per MPI rank memory allocation (min/avg/max) = 4.588 | 4.588 | 4.588 Mbytes
Step Temp E_pair E_mol TotEng Press 
17000000    132.73499            0            0     1.978289    1.1304012 
17100000     104.1862            0            0    1.5527964   0.88727322 
17200000    165.50185            0            0    2.4666478    1.4094511 
17300000    102.86733            0            0    1.5331399   0.87604145 
17400000    132.29474            0            0    1.9717274    1.1266519 
17500000    116.96296            0            0    1.7432218   0.99608298 
17600000    152.34494            0            0    2.2705566    1.2974039 
17700000    101.33273            0            0    1.5102682   0.86297245 
17800000    308.93616            0            0       4.6044    2.6309701 
17900000    107.64721            0            0    1.6043794   0.91674792 
18000000     136.5365            0            0    2.0349469    1.1627757 
Loop time of 4.34416 on 1 procs for 1000000 steps with 6 atoms

Performance: 39777.542 ns/day, 0.001 hours/ns, 230194.108 timesteps/s
99.0% CPU use with 1 MPI tasks x 1 OpenMP threads

MPI task timing breakdown:
Section |  min time  |  avg time  |  max time  |%varavg| %total
---------------------------------------------------------------
Pair    | 0.039349   | 0.039349   | 0.039349   |   0.0 |  0.91
Neigh   | 0.0095049  | 0.0095049  | 0.0095049  |   0.0 |  0.22
Comm    | 0.082864   | 0.082864   | 0.082864   |   0.0 |  1.91
Output  | 0.00014727 | 0.00014727 | 0.00014727 |   0.0 |  0.00
Modify  | 4.1234     | 4.1234     | 4.1234     |   0.0 | 94.92
Other   |            | 0.08888    |            |       |  2.05

Nlocal:        6.00000 ave           6 max           6 min
Histogram: 1 0 0 0 0 0 0 0 0 0
Nghost:        2.00000 ave           2 max           2 min
Histogram: 1 0 0 0 0 0 0 0 0 0
Neighs:         0.00000 ave           0 max           0 min
Histogram: 1 0 0 0 0 0 0 0 0 0

Total # of neighbors = 0
Ave neighs/atom = 0.0000000
Neighbor list builds = 4387
Dangerous builds = 0
unfix myat1
next a
jump SELF loop
variable xdes equal ${a}-25
variable xdes equal 16-25
variable xave equal xcm(topull,x)
fix mytth topull spring tether ${k} ${xdes} 0 0 0
fix mytth topull spring tether 1.5 ${xdes} 0 0 0
fix mytth topull spring tether 1.5 -9 0 0 0
run 200000 # equilibrate
Per MPI rank memory allocation (min/avg/max) = 4.588 | 4.588 | 4.588 Mbytes
Step Temp E_pair E_mol TotEng Press 
18000000     136.5365            0            0    2.0349469    1.1627757 
18100000    166.31303            0            0    2.4787377    1.4163593 
18200000    68.094963            0            0    1.0148908   0.57991209 
Loop time of 0.85053 on 1 procs for 200000 steps with 6 atoms

Performance: 40633.472 ns/day, 0.001 hours/ns, 235147.407 timesteps/s
100.0% CPU use with 1 MPI tasks x 1 OpenMP threads

MPI task timing breakdown:
Section |  min time  |  avg time  |  max time  |%varavg| %total
---------------------------------------------------------------
Pair    | 0.0072685  | 0.0072685  | 0.0072685  |   0.0 |  0.85
Neigh   | 0.0017959  | 0.0017959  | 0.0017959  |   0.0 |  0.21
Comm    | 0.013618   | 0.013618   | 0.013618   |   0.0 |  1.60
Output  | 3.2338e-05 | 3.2338e-05 | 3.2338e-05 |   0.0 |  0.00
Modify  | 0.81036    | 0.81036    | 0.81036    |   0.0 | 95.28
Other   |            | 0.01745    |            |       |  2.05

Nlocal:        6.00000 ave           6 max           6 min
Histogram: 1 0 0 0 0 0 0 0 0 0
Nghost:        3.00000 ave           3 max           3 min
Histogram: 1 0 0 0 0 0 0 0 0 0
Neighs:         0.00000 ave           0 max           0 min
Histogram: 1 0 0 0 0 0 0 0 0 0

Total # of neighbors = 0
Ave neighs/atom = 0.0000000
Neighbor list builds = 872
Dangerous builds = 0
fix myat1 all ave/time 10 10 100 v_xave v_xdes file position.${a}.dat
fix myat1 all ave/time 10 10 100 v_xave v_xdes file position.16.dat
run 1000000 # data aquisition
Per MPI rank memory allocation (min/avg/max) = 4.588 | 4.588 | 4.588 Mbytes
Step Temp E_pair E_mol TotEng Press 
18200000    68.094963            0            0    1.0148908   0.57991209 
18300000    163.99921            0            0    2.4442525    1.3966543 
18400000    121.25686            0            0    1.8072184    1.0326508 
18500000    157.24121            0            0    2.3435309    1.3391017 
18600000     291.7529            0            0    4.3482999    2.4846336 
18700000    170.20834            0            0    2.5367937    1.4495327 
18800000    224.91552            0            0    3.3521522    1.9154313 
18900000    137.69078            0            0    2.0521504    1.1726058 
19000000    269.16043            0            0    4.0115805     2.292231 
19100000    170.00069            0            0    2.5336989    1.4477643 
19200000    94.404003            0            0     1.407002   0.80396581 
Loop time of 4.322 on 1 procs for 1000000 steps with 6 atoms

Performance: 39981.467 ns/day, 0.001 hours/ns, 231374.229 timesteps/s
99.1% CPU use with 1 MPI tasks x 1 OpenMP threads

MPI task timing breakdown:
Section |  min time  |  avg time  |  max time  |%varavg| %total
---------------------------------------------------------------
Pair    | 0.037591   | 0.037591   | 0.037591   |   0.0 |  0.87
Neigh   | 0.009256   | 0.009256   | 0.009256   |   0.0 |  0.21
Comm    | 0.083795   | 0.083795   | 0.083795   |   0.0 |  1.94
Output  | 0.00020094 | 0.00020094 | 0.00020094 |   0.0 |  0.00
Modify  | 4.1031     | 4.1031     | 4.1031     |   0.0 | 94.93
Other   |            | 0.08808    |            |       |  2.04

Nlocal:        6.00000 ave           6 max           6 min
Histogram: 1 0 0 0 0 0 0 0 0 0
Nghost:        5.00000 ave           5 max           5 min
Histogram: 1 0 0 0 0 0 0 0 0 0
Neighs:        1.00000 ave           1 max           1 min
Histogram: 1 0 0 0 0 0 0 0 0 0

Total # of neighbors = 1
Ave neighs/atom = 0.16666667
Neighbor list builds = 4361
Dangerous builds = 0
unfix myat1
next a
jump SELF loop
variable xdes equal ${a}-25
variable xdes equal 17-25
variable xave equal xcm(topull,x)
fix mytth topull spring tether ${k} ${xdes} 0 0 0
fix mytth topull spring tether 1.5 ${xdes} 0 0 0
fix mytth topull spring tether 1.5 -8 0 0 0
run 200000 # equilibrate
Per MPI rank memory allocation (min/avg/max) = 4.588 | 4.588 | 4.588 Mbytes
Step Temp E_pair E_mol TotEng Press 
19200000    94.404003            0            0     1.407002   0.80396581 
19300000    120.18761            0            0    1.7912822    1.0235448 
19400000    74.644865            0            0    1.1125108   0.63569253 
Loop time of 0.856582 on 1 procs for 200000 steps with 6 atoms

Performance: 40346.423 ns/day, 0.001 hours/ns, 233486.242 timesteps/s
100.0% CPU use with 1 MPI tasks x 1 OpenMP threads

MPI task timing breakdown:
Section |  min time  |  avg time  |  max time  |%varavg| %total
---------------------------------------------------------------
Pair    | 0.0073432  | 0.0073432  | 0.0073432  |   0.0 |  0.86
Neigh   | 0.0018224  | 0.0018224  | 0.0018224  |   0.0 |  0.21
Comm    | 0.016446   | 0.016446   | 0.016446   |   0.0 |  1.92
Output  | 2.0057e-05 | 2.0057e-05 | 2.0057e-05 |   0.0 |  0.00
Modify  | 0.81333    | 0.81333    | 0.81333    |   0.0 | 94.95
Other   |            | 0.01762    |            |       |  2.06

Nlocal:        6.00000 ave           6 max           6 min
Histogram: 1 0 0 0 0 0 0 0 0 0
Nghost:        5.00000 ave           5 max           5 min
Histogram: 1 0 0 0 0 0 0 0 0 0
Neighs:         0.00000 ave           0 max           0 min
Histogram: 1 0 0 0 0 0 0 0 0 0

Total # of neighbors = 0
Ave neighs/atom = 0.0000000
Neighbor list builds = 881
Dangerous builds = 0
fix myat1 all ave/time 10 10 100 v_xave v_xdes file position.${a}.dat
fix myat1 all ave/time 10 10 100 v_xave v_xdes file position.17.dat
run 1000000 # data aquisition
Per MPI rank memory allocation (min/avg/max) = 4.588 | 4.588 | 4.588 Mbytes
Step Temp E_pair E_mol TotEng Press 
19400000    74.644865            0            0    1.1125108   0.63569253 
19500000    98.538334            0            0    1.4686203   0.83917471 
19600000    187.62082            0            0    2.7963101    1.5978213 
19700000    154.10239            0            0    2.2967497    1.3123707 
19800000    155.18786            0            0    2.3129277    1.3216149 
19900000    158.92669            0            0    2.3686514    1.3534556 
20000000    143.08895            0            0    2.1326048    1.2185778 
20100000    99.987349            0            0    1.4902165   0.85151484 
20200000    138.00256            0            0     2.056797    1.1752609 
20300000    216.57367            0            0    3.2278249    1.8443903 
20400000     204.7353            0            0    3.0513853    1.7435721 
Loop time of 4.2746 on 1 procs for 1000000 steps with 6 atoms

Performance: 40424.870 ns/day, 0.001 hours/ns, 233940.222 timesteps/s
98.8% CPU use with 1 MPI tasks x 1 OpenMP threads

MPI task timing breakdown:
Section |  min time  |  avg time  |  max time  |%varavg| %total
---------------------------------------------------------------
Pair    | 0.037227   | 0.037227   | 0.037227   |   0.0 |  0.87
Neigh   | 0.0089206  | 0.0089206  | 0.0089206  |   0.0 |  0.21
Comm    | 0.078254   | 0.078254   | 0.078254   |   0.0 |  1.83
Output  | 0.00010952 | 0.00010952 | 0.00010952 |   0.0 |  0.00
Modify  | 4.0629     | 4.0629     | 4.0629     |   0.0 | 95.05
Other   |            | 0.08717    |            |       |  2.04

Nlocal:        6.00000 ave           6 max           6 min
Histogram: 1 0 0 0 0 0 0 0 0 0
Nghost:        5.00000 ave           5 max           5 min
Histogram: 1 0 0 0 0 0 0 0 0 0
Neighs:         0.00000 ave           0 max           0 min
Histogram: 1 0 0 0 0 0 0 0 0 0

Total # of neighbors = 0
Ave neighs/atom = 0.0000000
Neighbor list builds = 4377
Dangerous builds = 0
unfix myat1
next a
jump SELF loop
variable xdes equal ${a}-25
variable xdes equal 18-25
variable xave equal xcm(topull,x)
fix mytth topull spring tether ${k} ${xdes} 0 0 0
fix mytth topull spring tether 1.5 ${xdes} 0 0 0
fix mytth topull spring tether 1.5 -7 0 0 0
run 200000 # equilibrate
Per MPI rank memory allocation (min/avg/max) = 4.588 | 4.588 | 4.588 Mbytes
Step Temp E_pair E_mol TotEng Press 
20400000     204.7353            0            0    3.0513853    1.7435721 
20500000    104.05509            0            0    1.5508424   0.88615669 
20600000    151.41816            0            0    2.2567439    1.2895113 
Loop time of 0.854284 on 1 procs for 200000 steps with 6 atoms

Performance: 40454.938 ns/day, 0.001 hours/ns, 234114.222 timesteps/s
100.0% CPU use with 1 MPI tasks x 1 OpenMP threads

MPI task timing breakdown:
Section |  min time  |  avg time  |  max time  |%varavg| %total
---------------------------------------------------------------
Pair    | 0.007568   | 0.007568   | 0.007568   |   0.0 |  0.89
Neigh   | 0.0017794  | 0.0017794  | 0.0017794  |   0.0 |  0.21
Comm    | 0.015277   | 0.015277   | 0.015277   |   0.0 |  1.79
Output  | 1.9906e-05 | 1.9906e-05 | 1.9906e-05 |   0.0 |  0.00
Modify  | 0.81202    | 0.81202    | 0.81202    |   0.0 | 95.05
Other   |            | 0.01762    |            |       |  2.06

Nlocal:        6.00000 ave           6 max           6 min
Histogram: 1 0 0 0 0 0 0 0 0 0
Nghost:        7.00000 ave           7 max           7 min
Histogram: 1 0 0 0 0 0 0 0 0 0
Neighs:         0.00000 ave           0 max           0 min
Histogram: 1 0 0 0 0 0 0 0 0 0

Total # of neighbors = 0
Ave neighs/atom = 0.0000000
Neighbor list builds = 874
Dangerous builds = 0
fix myat1 all ave/time 10 10 100 v_xave v_xdes file position.${a}.dat
fix myat1 all ave/time 10 10 100 v_xave v_xdes file position.18.dat
run 1000000 # data aquisition
Per MPI rank memory allocation (min/avg/max) = 4.588 | 4.588 | 4.588 Mbytes
Step Temp E_pair E_mol TotEng Press 
20600000    151.41816            0            0    2.2567439    1.2895113 
20700000    300.23899            0            0     4.474777    2.5569031 
20800000    278.48029            0            0    4.1504843    2.3716011 
20900000    137.49093            0            0    2.0491717    1.1709038 
21000000    142.59091            0            0    2.1251821    1.2143364 
21100000    216.77309            0            0    3.2307971    1.8460886 
21200000     155.6099            0            0    2.3192178    1.3252091 
21300000    135.15396            0            0    2.0143414    1.1510016 
21400000    268.42279            0            0    4.0005867    2.2859491 
21500000    125.80167            0            0    1.8749544    1.0713555 
21600000    132.18789            0            0     1.970135    1.1257419 
Loop time of 4.26394 on 1 procs for 1000000 steps with 6 atoms

Performance: 40525.939 ns/day, 0.001 hours/ns, 234525.112 timesteps/s
98.9% CPU use with 1 MPI tasks x 1 OpenMP threads

MPI task timing breakdown:
Section |  min time  |  avg time  |  max time  |%varavg| %total
---------------------------------------------------------------
Pair    | 0.036868   | 0.036868   | 0.036868   |   0.0 |  0.86
Neigh   | 0.0090352  | 0.0090352  | 0.0090352  |   0.0 |  0.21
Comm    | 0.081502   | 0.081502   | 0.081502   |   0.0 |  1.91
Output  | 0.00011204 | 0.00011204 | 0.00011204 |   0.0 |  0.00
Modify  | 4.0492     | 4.0492     | 4.0492     |   0.0 | 94.96
Other   |            | 0.08726    |            |       |  2.05

Nlocal:        6.00000 ave           6 max           6 min
Histogram: 1 0 0 0 0 0 0 0 0 0
Nghost:        4.00000 ave           4 max           4 min
Histogram: 1 0 0 0 0 0 0 0 0 0
Neighs:         0.00000 ave           0 max           0 min
Histogram: 1 0 0 0 0 0 0 0 0 0

Total # of neighbors = 0
Ave neighs/atom = 0.0000000
Neighbor list builds = 4388
Dangerous builds = 0
unfix myat1
next a
jump SELF loop
variable xdes equal ${a}-25
variable xdes equal 19-25
variable xave equal xcm(topull,x)
fix mytth topull spring tether ${k} ${xdes} 0 0 0
fix mytth topull spring tether 1.5 ${xdes} 0 0 0
fix mytth topull spring tether 1.5 -6 0 0 0
run 200000 # equilibrate
Per MPI rank memory allocation (min/avg/max) = 4.588 | 4.588 | 4.588 Mbytes
Step Temp E_pair E_mol TotEng Press 
21600000    132.18789            0            0     1.970135    1.1257419 
21700000    106.36999            0            0    1.5853437   0.90587086 
21800000    118.04688            0            0    1.7593766    1.0053139 
Loop time of 0.854543 on 1 procs for 200000 steps with 6 atoms

Performance: 40442.654 ns/day, 0.001 hours/ns, 234043.139 timesteps/s
100.0% CPU use with 1 MPI tasks x 1 OpenMP threads

MPI task timing breakdown:
Section |  min time  |  avg time  |  max time  |%varavg| %total
---------------------------------------------------------------
Pair    | 0.0076177  | 0.0076177  | 0.0076177  |   0.0 |  0.89
Neigh   | 0.0018752  | 0.0018752  | 0.0018752  |   0.0 |  0.22
Comm    | 0.019228   | 0.019228   | 0.019228   |   0.0 |  2.25
Output  | 1.653e-05  | 1.653e-05  | 1.653e-05  |   0.0 |  0.00
Modify  | 0.80801    | 0.80801    | 0.80801    |   0.0 | 94.55
Other   |            | 0.0178     |            |       |  2.08

Nlocal:        6.00000 ave           6 max           6 min
Histogram: 1 0 0 0 0 0 0 0 0 0
Nghost:        10.0000 ave          10 max          10 min
Histogram: 1 0 0 0 0 0 0 0 0 0
Neighs:         0.00000 ave           0 max           0 min
Histogram: 1 0 0 0 0 0 0 0 0 0

Total # of neighbors = 0
Ave neighs/atom = 0.0000000
Neighbor list builds = 883
Dangerous builds = 0
fix myat1 all ave/time 10 10 100 v_xave v_xdes file position.${a}.dat
fix myat1 all ave/time 10 10 100 v_xave v_xdes file position.19.dat
run 1000000 # data aquisition
Per MPI rank memory allocation (min/avg/max) = 4.588 | 4.588 | 4.588 Mbytes
Step Temp E_pair E_mol TotEng Press 
21800000    118.04688            0            0    1.7593766    1.0053139 
21900000    82.156152            0            0    1.2244594   0.69966035 
22000000    171.23642            0            0    2.5521162     1.458288 
22100000    117.00839            0            0    1.7438989   0.99646989 
22200000    180.02048            0            0    2.6830342     1.533095 
22300000    100.96605            0            0    1.5048031    0.8598497 
22400000    107.09684            0            0    1.5961767   0.91206091 
22500000    126.40401            0            0    1.8839318    1.0764851 
22600000     239.0732            0            0     3.563159    2.0360014 
22700000     116.8653            0            0    1.7417663   0.99525127 
22800000    158.39044            0            0     2.360659    1.3488887 
Loop time of 4.2439 on 1 procs for 1000000 steps with 6 atoms

Performance: 40717.257 ns/day, 0.001 hours/ns, 235632.275 timesteps/s
99.4% CPU use with 1 MPI tasks x 1 OpenMP threads

MPI task timing breakdown:
Section |  min time  |  avg time  |  max time  |%varavg| %total
---------------------------------------------------------------
Pair    | 0.036698   | 0.036698   | 0.036698   |   0.0 |  0.86
Neigh   | 0.0089472  | 0.0089472  | 0.0089472  |   0.0 |  0.21
Comm    | 0.079861   | 0.079861   | 0.079861   |   0.0 |  1.88
[...]
Histogram: 1 0 0 0 0 0 0 0 0 0
Nghost:        13.0000 ave          13 max          13 min
Histogram: 1 0 0 0 0 0 0 0 0 0
Neighs:         0.00000 ave           0 max           0 min
Histogram: 1 0 0 0 0 0 0 0 0 0

Total # of neighbors = 0
Ave neighs/atom = 0.0000000
Neighbor list builds = 4380
Dangerous builds = 0
unfix myat1
next a
jump SELF loop
variable xdes equal ${a}-25
variable xdes equal 46-25
variable xave equal xcm(topull,x)
fix mytth topull spring tether ${k} ${xdes} 0 0 0
fix mytth topull spring tether 1.5 ${xdes} 0 0 0
fix mytth topull spring tether 1.5 21 0 0 0
run 200000 # equilibrate
Per MPI rank memory allocation (min/avg/max) = 4.588 | 4.588 | 4.588 Mbytes
Step Temp E_pair E_mol TotEng Press 
54000000    178.59586            0            0    2.6618017    1.5209627 
54100000    38.072302            0            0    0.5674315   0.32423232 
54200000    165.37879            0            0    2.4648138    1.4084031 
Loop time of 0.800109 on 1 procs for 200000 steps with 6 atoms

Performance: 43194.090 ns/day, 0.001 hours/ns, 249965.798 timesteps/s
100.0% CPU use with 1 MPI tasks x 1 OpenMP threads

MPI task timing breakdown:
Section |  min time  |  avg time  |  max time  |%varavg| %total
---------------------------------------------------------------
Pair    | 0.0069336  | 0.0069336  | 0.0069336  |   0.0 |  0.87
Neigh   | 0.0017205  | 0.0017205  | 0.0017205  |   0.0 |  0.22
Comm    | 0.017848   | 0.017848   | 0.017848   |   0.0 |  2.23
Output  | 1.8815e-05 | 1.8815e-05 | 1.8815e-05 |   0.0 |  0.00
Modify  | 0.757      | 0.757      | 0.757      |   0.0 | 94.61
Other   |            | 0.01659    |            |       |  2.07

Nlocal:        6.00000 ave           6 max           6 min
Histogram: 1 0 0 0 0 0 0 0 0 0
Nghost:        9.00000 ave           9 max           9 min
Histogram: 1 0 0 0 0 0 0 0 0 0
Neighs:         0.00000 ave           0 max           0 min
Histogram: 1 0 0 0 0 0 0 0 0 0

Total # of neighbors = 0
Ave neighs/atom = 0.0000000
Neighbor list builds = 892
Dangerous builds = 0
fix myat1 all ave/time 10 10 100 v_xave v_xdes file position.${a}.dat
fix myat1 all ave/time 10 10 100 v_xave v_xdes file position.46.dat
run 1000000 # data aquisition
Per MPI rank memory allocation (min/avg/max) = 4.588 | 4.588 | 4.588 Mbytes
Step Temp E_pair E_mol TotEng Press 
54200000    165.37879            0            0    2.4648138    1.4084031 
54300000    164.16732            0            0    2.4467581     1.398086 
54400000    129.70653            0            0    1.9331526    1.1046101 
54500000    170.04361 0.0048946547            0    2.5392332    1.5819263 
54600000    280.29549            0            0     4.177538    2.3870597 
54700000    133.34403            0            0    1.9873662    1.1355879 
54800000     160.5253            0            0    2.3924771    1.3670697 
54900000    129.31539            0            0    1.9273231    1.1012791 
55000000    140.91347            0            0    2.1001814    1.2000509 
55100000    154.43638            0            0    2.3017276    1.3152151 
55200000    307.93807            0            0    4.5895244    2.6224701 
Loop time of 4.14059 on 1 procs for 1000000 steps with 6 atoms

Performance: 41733.207 ns/day, 0.001 hours/ns, 241511.614 timesteps/s
99.2% CPU use with 1 MPI tasks x 1 OpenMP threads

MPI task timing breakdown:
Section |  min time  |  avg time  |  max time  |%varavg| %total
---------------------------------------------------------------
Pair    | 0.036406   | 0.036406   | 0.036406   |   0.0 |  0.88
Neigh   | 0.0086569  | 0.0086569  | 0.0086569  |   0.0 |  0.21
Comm    | 0.080032   | 0.080032   | 0.080032   |   0.0 |  1.93
Output  | 0.00012479 | 0.00012479 | 0.00012479 |   0.0 |  0.00
Modify  | 3.93       | 3.93       | 3.93       |   0.0 | 94.91
Other   |            | 0.08536    |            |       |  2.06

Nlocal:        6.00000 ave           6 max           6 min
Histogram: 1 0 0 0 0 0 0 0 0 0
Nghost:        6.00000 ave           6 max           6 min
Histogram: 1 0 0 0 0 0 0 0 0 0
Neighs:         0.00000 ave           0 max           0 min
Histogram: 1 0 0 0 0 0 0 0 0 0

Total # of neighbors = 0
Ave neighs/atom = 0.0000000
Neighbor list builds = 4386
Dangerous builds = 0
unfix myat1
next a
jump SELF loop
variable xdes equal ${a}-25
variable xdes equal 47-25
variable xave equal xcm(topull,x)
fix mytth topull spring tether ${k} ${xdes} 0 0 0
fix mytth topull spring tether 1.5 ${xdes} 0 0 0
fix mytth topull spring tether 1.5 22 0 0 0
run 200000 # equilibrate
Per MPI rank memory allocation (min/avg/max) = 4.588 | 4.588 | 4.588 Mbytes
Step Temp E_pair E_mol TotEng Press 
55200000    307.93807            0            0    4.5895244    2.6224701 
55300000    117.06651            0            0    1.7447652   0.99696486 
55400000    114.64985            0            0    1.7087471     0.976384 
Loop time of 0.847613 on 1 procs for 200000 steps with 6 atoms

Performance: 40773.332 ns/day, 0.001 hours/ns, 235956.781 timesteps/s
100.0% CPU use with 1 MPI tasks x 1 OpenMP threads

MPI task timing breakdown:
Section |  min time  |  avg time  |  max time  |%varavg| %total
---------------------------------------------------------------
Pair    | 0.0074652  | 0.0074652  | 0.0074652  |   0.0 |  0.88
Neigh   | 0.0018043  | 0.0018043  | 0.0018043  |   0.0 |  0.21
Comm    | 0.015442   | 0.015442   | 0.015442   |   0.0 |  1.82
Output  | 2.3439e-05 | 2.3439e-05 | 2.3439e-05 |   0.0 |  0.00
Modify  | 0.80529    | 0.80529    | 0.80529    |   0.0 | 95.01
Other   |            | 0.01759    |            |       |  2.08

Nlocal:        6.00000 ave           6 max           6 min
Histogram: 1 0 0 0 0 0 0 0 0 0
Nghost:        4.00000 ave           4 max           4 min
Histogram: 1 0 0 0 0 0 0 0 0 0
Neighs:         0.00000 ave           0 max           0 min
Histogram: 1 0 0 0 0 0 0 0 0 0

Total # of neighbors = 0
Ave neighs/atom = 0.0000000
Neighbor list builds = 879
Dangerous builds = 0
fix myat1 all ave/time 10 10 100 v_xave v_xdes file position.${a}.dat
fix myat1 all ave/time 10 10 100 v_xave v_xdes file position.47.dat
run 1000000 # data aquisition
Per MPI rank memory allocation (min/avg/max) = 4.588 | 4.588 | 4.588 Mbytes
Step Temp E_pair E_mol TotEng Press 
55400000    114.64985            0            0    1.7087471     0.976384 
55500000    163.17278            0            0    2.4319353    1.3896163 
55600000    185.67357            0            0    2.7672882     1.581238 
55700000    191.24442            0            0    2.8503164    1.6286807 
55800000    152.67537            0            0    2.2754813    1.3002179 
55900000    91.638803            0            0    1.3657893   0.78041674 
56000000    117.51846            0            0    1.7515011    1.0008138 
56100000    203.96361            0            0    3.0398839    1.7370002 
56200000    136.96055            0            0    2.0412669     1.166387 
56300000    152.31204            0            0    2.2700663    1.2971237 
56400000    96.753388            0            0    1.4420174    0.8239737 
Loop time of 4.17212 on 1 procs for 1000000 steps with 6 atoms

Performance: 41417.815 ns/day, 0.001 hours/ns, 239686.429 timesteps/s
99.2% CPU use with 1 MPI tasks x 1 OpenMP threads

MPI task timing breakdown:
Section |  min time  |  avg time  |  max time  |%varavg| %total
---------------------------------------------------------------
Pair    | 0.037555   | 0.037555   | 0.037555   |   0.0 |  0.90
Neigh   | 0.0089177  | 0.0089177  | 0.0089177  |   0.0 |  0.21
Comm    | 0.079586   | 0.079586   | 0.079586   |   0.0 |  1.91
Output  | 0.00011934 | 0.00011934 | 0.00011934 |   0.0 |  0.00
Modify  | 3.9601     | 3.9601     | 3.9601     |   0.0 | 94.92
Other   |            | 0.08581    |            |       |  2.06

Nlocal:        6.00000 ave           6 max           6 min
Histogram: 1 0 0 0 0 0 0 0 0 0
Nghost:        5.00000 ave           5 max           5 min
Histogram: 1 0 0 0 0 0 0 0 0 0
Neighs:         0.00000 ave           0 max           0 min
Histogram: 1 0 0 0 0 0 0 0 0 0

Total # of neighbors = 0
Ave neighs/atom = 0.0000000
Neighbor list builds = 4428
Dangerous builds = 0
unfix myat1
next a
jump SELF loop
variable xdes equal ${a}-25
variable xdes equal 48-25
variable xave equal xcm(topull,x)
fix mytth topull spring tether ${k} ${xdes} 0 0 0
fix mytth topull spring tether 1.5 ${xdes} 0 0 0
fix mytth topull spring tether 1.5 23 0 0 0
run 200000 # equilibrate
Per MPI rank memory allocation (min/avg/max) = 4.588 | 4.588 | 4.588 Mbytes
Step Temp E_pair E_mol TotEng Press 
56400000    96.753388            0            0    1.4420174    0.8239737 
56500000    113.27442            0            0    1.6882476   0.96467053 
56600000    123.86425            0            0    1.8460789    1.0548559 
Loop time of 0.85094 on 1 procs for 200000 steps with 6 atoms

Performance: 40613.899 ns/day, 0.001 hours/ns, 235034.138 timesteps/s
100.0% CPU use with 1 MPI tasks x 1 OpenMP threads

MPI task timing breakdown:
Section |  min time  |  avg time  |  max time  |%varavg| %total
---------------------------------------------------------------
Pair    | 0.0074883  | 0.0074883  | 0.0074883  |   0.0 |  0.88
Neigh   | 0.0018718  | 0.0018718  | 0.0018718  |   0.0 |  0.22
Comm    | 0.016177   | 0.016177   | 0.016177   |   0.0 |  1.90
Output  | 1.5671e-05 | 1.5671e-05 | 1.5671e-05 |   0.0 |  0.00
Modify  | 0.80756    | 0.80756    | 0.80756    |   0.0 | 94.90
Other   |            | 0.01783    |            |       |  2.10

Nlocal:        6.00000 ave           6 max           6 min
Histogram: 1 0 0 0 0 0 0 0 0 0
Nghost:        9.00000 ave           9 max           9 min
Histogram: 1 0 0 0 0 0 0 0 0 0
Neighs:         0.00000 ave           0 max           0 min
Histogram: 1 0 0 0 0 0 0 0 0 0

Total # of neighbors = 0
Ave neighs/atom = 0.0000000
Neighbor list builds = 880
Dangerous builds = 0
fix myat1 all ave/time 10 10 100 v_xave v_xdes file position.${a}.dat
fix myat1 all ave/time 10 10 100 v_xave v_xdes file position.48.dat
run 1000000 # data aquisition
Per MPI rank memory allocation (min/avg/max) = 4.588 | 4.588 | 4.588 Mbytes
Step Temp E_pair E_mol TotEng Press 
56600000    123.86425            0            0    1.8460789    1.0548559 
56700000    145.79015            0            0    2.1728637    1.2415819 
56800000    172.27543            0            0    2.5676016    1.4671364 
56900000    85.623017            0            0    1.2761298   0.72918495 
57000000    147.40832            0            0    2.1969809    1.2553625 
57100000    165.81213            0            0    2.4712723    1.4120935 
57200000    204.18109            0            0    3.0431253    1.7388523 
57300000    174.31791            0            0    2.5980429    1.4845307 
57400000    75.437503            0            0    1.1243243   0.64244281 
57500000    222.31845            0            0    3.3134453    1.8933141 
57600000    153.33959            0            0    2.2853809    1.3058746 
Loop time of 4.27191 on 1 procs for 1000000 steps with 6 atoms

Performance: 40450.279 ns/day, 0.001 hours/ns, 234087.261 timesteps/s
99.3% CPU use with 1 MPI tasks x 1 OpenMP threads

MPI task timing breakdown:
Section |  min time  |  avg time  |  max time  |%varavg| %total
---------------------------------------------------------------
Pair    | 0.037668   | 0.037668   | 0.037668   |   0.0 |  0.88
Neigh   | 0.0092747  | 0.0092747  | 0.0092747  |   0.0 |  0.22
Comm    | 0.086707   | 0.086707   | 0.086707   |   0.0 |  2.03
Output  | 0.00018849 | 0.00018849 | 0.00018849 |   0.0 |  0.00
Modify  | 4.0503     | 4.0503     | 4.0503     |   0.0 | 94.81
Other   |            | 0.08776    |            |       |  2.05

Nlocal:        6.00000 ave           6 max           6 min
Histogram: 1 0 0 0 0 0 0 0 0 0
Nghost:        3.00000 ave           3 max           3 min
Histogram: 1 0 0 0 0 0 0 0 0 0
Neighs:        1.00000 ave           1 max           1 min
Histogram: 1 0 0 0 0 0 0 0 0 0

Total # of neighbors = 1
Ave neighs/atom = 0.16666667
Neighbor list builds = 4378
Dangerous builds = 0
unfix myat1
next a
jump SELF loop
variable xdes equal ${a}-25
variable xdes equal 49-25
variable xave equal xcm(topull,x)
fix mytth topull spring tether ${k} ${xdes} 0 0 0
fix mytth topull spring tether 1.5 ${xdes} 0 0 0
fix mytth topull spring tether 1.5 24 0 0 0
run 200000 # equilibrate
Per MPI rank memory allocation (min/avg/max) = 4.588 | 4.588 | 4.588 Mbytes
Step Temp E_pair E_mol TotEng Press 
57600000    153.33959            0            0    2.2853809    1.3058746 
57700000    156.57101            0            0    2.3335422    1.3333941 
57800000    273.91316            0            0    4.0824156    2.3327064 
Loop time of 0.847488 on 1 procs for 200000 steps with 6 atoms

Performance: 40779.347 ns/day, 0.001 hours/ns, 235991.592 timesteps/s
100.0% CPU use with 1 MPI tasks x 1 OpenMP threads

MPI task timing breakdown:
Section |  min time  |  avg time  |  max time  |%varavg| %total
---------------------------------------------------------------
Pair    | 0.0075573  | 0.0075573  | 0.0075573  |   0.0 |  0.89
Neigh   | 0.0018078  | 0.0018078  | 0.0018078  |   0.0 |  0.21
Comm    | 0.015375   | 0.015375   | 0.015375   |   0.0 |  1.81
Output  | 1.925e-05  | 1.925e-05  | 1.925e-05  |   0.0 |  0.00
Modify  | 0.80511    | 0.80511    | 0.80511    |   0.0 | 95.00
Other   |            | 0.01762    |            |       |  2.08

Nlocal:        6.00000 ave           6 max           6 min
Histogram: 1 0 0 0 0 0 0 0 0 0
Nghost:        5.00000 ave           5 max           5 min
Histogram: 1 0 0 0 0 0 0 0 0 0
Neighs:         0.00000 ave           0 max           0 min
Histogram: 1 0 0 0 0 0 0 0 0 0

Total # of neighbors = 0
Ave neighs/atom = 0.0000000
Neighbor list builds = 857
Dangerous builds = 0
fix myat1 all ave/time 10 10 100 v_xave v_xdes file position.${a}.dat
fix myat1 all ave/time 10 10 100 v_xave v_xdes file position.49.dat
run 1000000 # data aquisition
Per MPI rank memory allocation (min/avg/max) = 4.588 | 4.588 | 4.588 Mbytes
Step Temp E_pair E_mol TotEng Press 
57800000    273.91316            0            0    4.0824156    2.3327064 
57900000    129.45506            0            0    1.9294047    1.1024685 
58000000    63.790442            0            0   0.95073595   0.54325381 
58100000    178.40638            0            0    2.6589776     1.519349 
58200000    73.947799            0            0    1.1021217   0.62975616 
58300000    66.134423            0            0   0.98567076   0.56321568 
58400000    175.00644            0            0    2.6083048    1.4903944 
58500000    164.33155            0            0    2.4492056    1.3994846 
58600000    163.83575            0            0    2.4418162    1.3952622 
58700000    162.47756            0            0    2.4215737    1.3836956 
58800000    153.95627            0            0    2.2945721    1.3111264 
Loop time of 4.27622 on 1 procs for 1000000 steps with 6 atoms

Performance: 40409.505 ns/day, 0.001 hours/ns, 233851.301 timesteps/s
99.4% CPU use with 1 MPI tasks x 1 OpenMP threads

MPI task timing breakdown:
Section |  min time  |  avg time  |  max time  |%varavg| %total
---------------------------------------------------------------
Pair    | 0.038035   | 0.038035   | 0.038035   |   0.0 |  0.89
Neigh   | 0.0091568  | 0.0091568  | 0.0091568  |   0.0 |  0.21
Comm    | 0.082859   | 0.082859   | 0.082859   |   0.0 |  1.94
Output  | 0.00010891 | 0.00010891 | 0.00010891 |   0.0 |  0.00
Modify  | 4.0587     | 4.0587     | 4.0587     |   0.0 | 94.91
Other   |            | 0.0874     |            |       |  2.04

Nlocal:        6.00000 ave           6 max           6 min
Histogram: 1 0 0 0 0 0 0 0 0 0
Nghost:        16.0000 ave          16 max          16 min
Histogram: 1 0 0 0 0 0 0 0 0 0
Neighs:        1.00000 ave           1 max           1 min
Histogram: 1 0 0 0 0 0 0 0 0 0

Total # of neighbors = 1
Ave neighs/atom = 0.16666667
Neighbor list builds = 4386
Dangerous builds = 0
unfix myat1
next a
jump SELF loop
variable xdes equal ${a}-25
variable xdes equal 50-25
variable xave equal xcm(topull,x)
fix mytth topull spring tether ${k} ${xdes} 0 0 0
fix mytth topull spring tether 1.5 ${xdes} 0 0 0
fix mytth topull spring tether 1.5 25 0 0 0
run 200000 # equilibrate
Per MPI rank memory allocation (min/avg/max) = 4.588 | 4.588 | 4.588 Mbytes
Step Temp E_pair E_mol TotEng Press 
58800000    153.95627            0            0    2.2945721    1.3111264 
58900000    204.28682            0            0    3.0447011    1.7397527 
59000000    130.47079            0            0    1.9445432    1.1111187 
Loop time of 0.852692 on 1 procs for 200000 steps with 6 atoms

Performance: 40530.485 ns/day, 0.001 hours/ns, 234551.417 timesteps/s
100.0% CPU use with 1 MPI tasks x 1 OpenMP threads

MPI task timing breakdown:
Section |  min time  |  avg time  |  max time  |%varavg| %total
---------------------------------------------------------------
Pair    | 0.0077013  | 0.0077013  | 0.0077013  |   0.0 |  0.90
Neigh   | 0.0018678  | 0.0018678  | 0.0018678  |   0.0 |  0.22
Comm    | 0.018276   | 0.018276   | 0.018276   |   0.0 |  2.14
Output  | 5.1425e-05 | 5.1425e-05 | 5.1425e-05 |   0.0 |  0.01
Modify  | 0.8071     | 0.8071     | 0.8071     |   0.0 | 94.65
Other   |            | 0.01769    |            |       |  2.07

Nlocal:        6.00000 ave           6 max           6 min
Histogram: 1 0 0 0 0 0 0 0 0 0
Nghost:        9.00000 ave           9 max           9 min
Histogram: 1 0 0 0 0 0 0 0 0 0
Neighs:         0.00000 ave           0 max           0 min
Histogram: 1 0 0 0 0 0 0 0 0 0

Total # of neighbors = 0
Ave neighs/atom = 0.0000000
Neighbor list builds = 870
Dangerous builds = 0
fix myat1 all ave/time 10 10 100 v_xave v_xdes file position.${a}.dat
fix myat1 all ave/time 10 10 100 v_xave v_xdes file position.50.dat
run 1000000 # data aquisition
Per MPI rank memory allocation (min/avg/max) = 4.588 | 4.588 | 4.588 Mbytes
Step Temp E_pair E_mol TotEng Press 
59000000    130.47079            0            0    1.9445432    1.1111187 
59100000    149.98503            0            0    2.2353844    1.2773064 
59200000    151.58188            0            0    2.2591839    1.2909055 
59300000    79.170293            0            0     1.179958   0.67423209 
59400000     189.2975            0            0    2.8212994    1.6121002 
59500000    253.54602            0            0    3.7788626    2.1592552 
59600000    191.43751            0            0    2.8531942    1.6303251 
59700000    218.94544            0            0    3.2631739    1.8645888 
59800000    99.064759            0            0    1.4764661   0.84365786 
59900000    146.77566            0            0    2.1875518    1.2499747 
60000000    170.47836            0            0     2.540818    1.4518322 
Loop time of 4.26183 on 1 procs for 1000000 steps with 6 atoms

Performance: 40545.998 ns/day, 0.001 hours/ns, 234641.194 timesteps/s
99.2% CPU use with 1 MPI tasks x 1 OpenMP threads

MPI task timing breakdown:
Section |  min time  |  avg time  |  max time  |%varavg| %total
---------------------------------------------------------------
Pair    | 0.037541   | 0.037541   | 0.037541   |   0.0 |  0.88
Neigh   | 0.0091135  | 0.0091135  | 0.0091135  |   0.0 |  0.21
Comm    | 0.083836   | 0.083836   | 0.083836   |   0.0 |  1.97
Output  | 0.00016126 | 0.00016126 | 0.00016126 |   0.0 |  0.00
Modify  | 4.0442     | 4.0442     | 4.0442     |   0.0 | 94.89
Other   |            | 0.08698    |            |       |  2.04

Nlocal:        6.00000 ave           6 max           6 min
Histogram: 1 0 0 0 0 0 0 0 0 0
Nghost:        10.0000 ave          10 max          10 min
Histogram: 1 0 0 0 0 0 0 0 0 0
Neighs:         0.00000 ave           0 max           0 min
Histogram: 1 0 0 0 0 0 0 0 0 0

Total # of neighbors = 0
Ave neighs/atom = 0.0000000
Neighbor list builds = 4399
Dangerous builds = 0
unfix myat1
next a
jump SELF loop
Total wall time: 0:04:18
