ITEM: TIMESTEP
0
ITEM: NUMBER OF ATOMS
9896
ITEM: BOX BOUNDS pp pp pp
-1.6160000000000000e+01 4.8480000000000004e+01
-1.6160000000000000e+01 1.6160000000000000e+01
-4.0000000000000000e+01 4.0000000000000000e+01
ITEM: ATOMS id type xs ys zs
98 5 0.0939102 0.0292792 0.18159
129 5 0.0640827 0.0939407 0.180661
130 5 0.0961951 0.156238 0.180415
161 5 0.0638567 0.220745 0.182734
5074 5 0.0323595 0.0311632 0.180905
5105 5 0.00192925 0.0956907 0.182648
5106 5 0.0335197 0.159221 0.180923
5137 5 0.00187469 0.217559 0.182188
102 5 0.158652 0.0317104 0.181072
106 5 0.221433 0.0285025 0.181859
133 5 0.126842 0.0909901 0.180673
137 5 0.189443 0.0909671 0.181905
134 5 0.157488 0.151638 0.179924
138 5 0.22094 0.154355 0.182197
165 5 0.126995 0.215165 0.181612
169 5 0.188251 0.218124 0.181318
110 5 0.281939 0.0295018 0.18157
114 5 0.344895 0.0317652 0.183363
141 5 0.252631 0.0942616 0.181125
145 5 0.313373 0.0931638 0.182947
146 5 0.344405 0.154167 0.182278
142 5 0.282505 0.156443 0.184664
173 5 0.251291 0.216942 0.182499
177 5 0.314506 0.219073 0.182836
122 5 0.46932 0.0304244 0.1817
118 5 0.4083 0.0301824 0.182154
149 5 0.376898 0.0910383 0.183255
153 5 0.438808 0.0922006 0.181576
150 5 0.407916 0.155035 0.182301
154 5 0.470551 0.157259 0.181384
181 5 0.376047 0.217921 0.182071
185 5 0.437264 0.218592 0.182593
162 5 0.0952321 0.278298 0.181158
193 5 0.0653362 0.344507 0.180835
194 5 0.0954865 0.406675 0.181875
225 5 0.0644871 0.465584 0.181098
5138 5 0.0313838 0.282209 0.182134
5170 5 0.0321209 0.40614 0.182344
5201 5 0.00202361 0.466331 0.182313
170 5 0.221173 0.282751 0.182792
166 5 0.157754 0.281842 0.182403
197 5 0.126462 0.343809 0.181481
201 5 0.189326 0.3424 0.1813
202 5 0.219874 0.406356 0.182705
198 5 0.158941 0.403377 0.182475
229 5 0.128859 0.469747 0.1821
233 5 0.188155 0.466828 0.182472
178 5 0.346042 0.281586 0.18351
174 5 0.281092 0.281103 0.182376
205 5 0.251337 0.343654 0.183873
209 5 0.311995 0.34439 0.184453
206 5 0.281415 0.404971 0.183952
210 5 0.343682 0.404885 0.18262
237 5 0.251738 0.468424 0.18307
241 5 0.311735 0.468938 0.182828
221 5 0.499194 0.343936 0.181141
182 5 0.40728 0.278373 0.183313
186 5 0.468808 0.279464 0.183481
213 5 0.376176 0.345437 0.183211
217 5 0.438495 0.342085 0.183301
214 5 0.408228 0.402796 0.182086
218 5 0.47037 0.404945 0.182461
245 5 0.376528 0.463981 0.18165
249 5 0.439479 0.468158 0.183301
226 5 0.0952427 0.530037 0.181722
1 5 0.0641918 0.594997 0.183464
2 5 0.0943307 0.656181 0.182415
33 5 0.0638653 0.720708 0.180572
5202 5 0.0337585 0.530701 0.182854
4977 5 0.00203149 0.594102 0.181284
4978 5 0.0331636 0.656888 0.182948
5009 5 0.00180702 0.716796 0.181995
230 5 0.159338 0.531999 0.181737
234 5 0.220363 0.529695 0.183314
5 5 0.126329 0.591168 0.183035
9 5 0.190548 0.592617 0.182333
10 5 0.221041 0.654533 0.183958
6 5 0.158167 0.655807 0.181829
37 5 0.126854 0.717105 0.182086
41 5 0.19044 0.716474 0.183794
242 5 0.346748 0.527483 0.181457
238 5 0.282205 0.531563 0.18291
13 5 0.251539 0.592259 0.183349
17 5 0.315968 0.589748 0.181849
18 5 0.346234 0.655074 0.183436
14 5 0.284037 0.653943 0.183627
45 5 0.251476 0.718349 0.183564
49 5 0.314794 0.716666 0.183511
21 5 0.376383 0.590832 0.18413
250 5 0.47173 0.529637 0.181717
246 5 0.406114 0.528996 0.182441
25 5 0.439646 0.588068 0.181785
26 5 0.468915 0.652984 0.181204
22 5 0.408768 0.65295 0.183125
53 5 0.377408 0.715547 0.183979
57 5 0.439196 0.718643 0.182903
97 5 0.0643055 0.967233 0.183038
66 5 0.0969713 0.905867 0.182632
65 5 0.0641812 0.840566 0.181495
34 5 0.0953592 0.78096 0.182217
5073 5 0.00169431 0.967898 0.182097
5042 5 0.0325784 0.902342 0.18188
5041 5 0.001489 0.840886 0.182222
5010 5 0.0321925 0.780129 0.183386
101 5 0.127798 0.965134 0.181326
105 5 0.188295 0.967553 0.180759
74 5 0.220172 0.906313 0.183547
70 5 0.159379 0.90295 0.18216
69 5 0.126544 0.84199 0.18148
73 5 0.189117 0.840798 0.181277
42 5 0.220516 0.778245 0.182796
38 5 0.158058 0.778419 0.182057
109 5 0.252246 0.968267 0.182797
113 5 0.314879 0.966989 0.181848
82 5 0.345759 0.904544 0.182929
78 5 0.282719 0.905205 0.181628
77 5 0.251101 0.844154 0.183011
81 5 0.314218 0.844766 0.182903
50 5 0.345683 0.780092 0.18325
46 5 0.283279 0.782055 0.183964
117 5 0.376402 0.970412 0.183242
121 5 0.43935 0.966562 0.182046
86 5 0.408477 0.907341 0.183324
90 5 0.469555 0.904601 0.182131
85 5 0.377073 0.841754 0.182377
89 5 0.437771 0.842498 0.182342
54 5 0.406958 0.778153 0.182637
58 5 0.470992 0.778705 0.182648
356 5 0.06252 0.0289845 0.256407
354 5 0.0944514 0.0302169 0.230844
100 5 0.0633877 0.0324705 0.206471
387 5 0.0952435 0.089688 0.256825
385 5 0.0639283 0.0926256 0.231209
131 5 0.0950478 0.0926019 0.206076
388 5 0.0648305 0.15649 0.256979
386 5 0.0953821 0.154509 0.231604
132 5 0.0642306 0.155715 0.205957
417 5 0.0643526 0.21828 0.231187
419 5 0.0958809 0.215823 0.256236
163 5 0.0948171 0.216984 0.20588
562 5 0.0947668 0.0281676 0.280963
577 5 0.0628866 0.093961 0.280874
578 5 0.0962603 0.153034 0.281696
593 5 0.0642368 0.217575 0.281433
5330 5 0.0322387 0.0314911 0.23049
5076 5 0.000596132 0.0297794 0.205712
5332 5 0.00113125 0.0310693 0.255758
5363 5 0.0330193 0.0943334 0.255653
5107 5 0.0346144 0.0941269 0.206096
5361 5 0.0010679 0.0946346 0.230134
5362 5 0.0336376 0.155445 0.23109
5364 5 0.00143007 0.154567 0.255213
5108 5 0.00093151 0.156081 0.20665
5395 5 0.0333202 0.218843 0.2552
5139 5 0.0328767 0.219772 0.207476
5393 5 0.000921336 0.219182 0.230745
5555 5 0.000740553 0.218719 0.280298
5524 5 0.0322311 0.0320667 0.281303
5539 5 0.00145297 0.0917936 0.280234
5540 5 0.0308866 0.15667 0.280419
104 5 0.126125 0.0304154 0.206351
360 5 0.126735 0.0309703 0.256287
358 5 0.15833 0.0312779 0.231451
364 5 0.18873 0.0309964 0.256994
362 5 0.219939 0.0297459 0.23149
108 5 0.189221 0.0303869 0.207017
389 5 0.126231 0.0907639 0.231274
391 5 0.158506 0.0886562 0.256212
395 5 0.219903 0.0926611 0.256357
393 5 0.189671 0.0909753 0.231636
139 5 0.22198 0.0917585 0.207564
135 5 0.157389 0.0915919 0.206787
392 5 0.127294 0.153275 0.255917
136 5 0.125763 0.154887 0.206831
396 5 0.187932 0.151894 0.256891
390 5 0.157751 0.152858 0.231196
394 5 0.219653 0.155232 0.232646
140 5 0.189115 0.153419 0.206149
566 5 0.218699 0.0301977 0.281979
421 5 0.126615 0.215186 0.231364
423 5 0.157842 0.218287 0.25568
425 5 0.188768 0.214591 0.231868
427 5 0.218838 0.216329 0.257515
167 5 0.158377 0.214198 0.207079
171 5 0.219697 0.216442 0.207697
597 5 0.188473 0.216709 0.281941
564 5 0.158643 0.0273609 0.282069
579 5 0.126225 0.0938 0.281597
581 5 0.187944 0.0915303 0.281902
582 5 0.219253 0.154583 0.280702
580 5 0.157243 0.155347 0.280335
595 5 0.125593 0.215578 0.280313
368 5 0.251596 0.0312513 0.257418
112 5 0.251737 0.0290476 0.207731
366 5 0.2824 0.0295883 0.232346
372 5 0.313869 0.030912 0.25678
370 5 0.344772 0.0284765 0.232254
116 5 0.313707 0.029633 0.207115
397 5 0.251145 0.0915148 0.23252
399 5 0.283229 0.0930382 0.257345
403 5 0.345562 0.0939063 0.257525
401 5 0.313046 0.0929935 0.233164
147 5 0.344758 0.0938002 0.208243
143 5 0.281468 0.0920319 0.208178
144 5 0.250121 0.156985 0.208365
400 5 0.250832 0.154798 0.25682
398 5 0.281819 0.156339 0.232968
404 5 0.313987 0.154692 0.25736
402 5 0.345369 0.158045 0.23299
148 5 0.314467 0.156335 0.208956
568 5 0.283131 0.0302596 0.281855
585 5 0.314022 0.0904611 0.282364
429 5 0.250196 0.217799 0.233485
431 5 0.283007 0.217012 0.257407
435 5 0.345661 0.218506 0.257908
433 5 0.314768 0.219514 0.233112
175 5 0.281791 0.218557 0.207966
179 5 0.345139 0.217455 0.208178
601 5 0.314074 0.216863 0.282949
583 5 0.251844 0.091257 0.280884
570 5 0.344764 0.028828 0.281989
584 5 0.282717 0.157063 0.282198
586 5 0.344967 0.154746 0.282126
599 5 0.250414 0.217692 0.282999
376 5 0.376772 0.0291862 0.25801
120 5 0.376761 0.0296988 0.207957
374 5 0.408117 0.0293207 0.233147
380 5 0.440771 0.0313044 0.256793
378 5 0.470586 0.0290881 0.231401
124 5 0.43843 0.0275008 0.207341
405 5 0.376242 0.0933263 0.231872
407 5 0.409618 0.0936722 0.256977
411 5 0.47019 0.0937159 0.255152
409 5 0.4405 0.0929327 0.23186
151 5 0.409319 0.091532 0.208072
155 5 0.469437 0.0940425 0.205748
408 5 0.377877 0.154185 0.256291
152 5 0.375959 0.157034 0.207184
406 5 0.408827 0.15587 0.231831
412 5 0.440091 0.156917 0.256576
410 5 0.469949 0.156747 0.231078
156 5 0.438962 0.155419 0.206712
572 5 0.408334 0.0298624 0.28181
589 5 0.441167 0.0916692 0.282363
437 5 0.378508 0.217704 0.232437
439 5 0.40964 0.219952 0.257253
443 5 0.47058 0.220293 0.256351
441 5 0.43857 0.216124 0.231094
183 5 0.407715 0.219963 0.206733
187 5 0.470017 0.218067 0.206267
574 5 0.472625 0.029936 0.281761
587 5 0.376047 0.0927274 0.281502
588 5 0.407573 0.154666 0.282005
590 5 0.470983 0.155496 0.281258
603 5 0.376676 0.221207 0.282282
605 5 0.439636 0.217399 0.282054
420 5 0.0651461 0.280664 0.256176
418 5 0.0948177 0.279251 0.231304
164 5 0.0650061 0.282944 0.207016
449 5 0.0640194 0.34293 0.231271
451 5 0.0950166 0.34248 0.256428
195 5 0.0962435 0.343615 0.206981
452 5 0.0650582 0.403647 0.255867
450 5 0.095049 0.405766 0.230637
196 5 0.0647499 0.403633 0.207314
609 5 0.0640164 0.342429 0.282193
483 5 0.0953855 0.465993 0.256883
481 5 0.0647984 0.466102 0.231226
227 5 0.0959597 0.46894 0.206767
625 5 0.0636873 0.46969 0.280321
594 5 0.0944813 0.280156 0.281722
610 5 0.0952408 0.405015 0.282969
5394 5 0.0333775 0.28075 0.232024
5396 5 0.00199901 0.281087 0.256276
5140 5 0.00137758 0.279892 0.206964
5427 5 0.0335578 0.343073 0.256792
5171 5 0.0321451 0.343661 0.206518
5425 5 0.00190165 0.342216 0.231944
5426 5 0.0327643 0.404939 0.232066
5428 5 0.00187305 0.405059 0.25615
5172 5 0.00124535 0.405507 0.208437
5459 5 0.0323509 0.469727 0.256286
5203 5 0.0336997 0.467718 0.206501
5457 5 0.00299629 0.468751 0.231815
5572 5 0.0344872 0.40789 0.281152
5556 5 0.0334176 0.280018 0.281361
5571 5 0.00237132 0.341318 0.280711
5587 5 0.00226538 0.467071 0.280605
424 5 0.125825 0.27866 0.256448
168 5 0.126472 0.278905 0.206353
422 5 0.156697 0.279557 0.232172
428 5 0.188331 0.27808 0.25682
426 5 0.218991 0.278654 0.232251
172 5 0.188802 0.277907 0.207208
453 5 0.125935 0.342164 0.231995
455 5 0.158371 0.340311 0.255884
459 5 0.219989 0.341823 0.257579
457 5 0.188422 0.340037 0.232439
199 5 0.158756 0.342188 0.207283
203 5 0.219952 0.340907 0.20769
456 5 0.125302 0.402449 0.256553
200 5 0.12757 0.402842 0.207056
454 5 0.158566 0.404608 0.232809
460 5 0.189136 0.403858 0.258004
458 5 0.220997 0.404065 0.233072
204 5 0.188993 0.403799 0.208286
598 5 0.219108 0.280556 0.282371
485 5 0.126689 0.466379 0.231706
487 5 0.156639 0.467916 0.256922
491 5 0.219183 0.464994 0.258177
489 5 0.188122 0.467704 0.23227
231 5 0.157528 0.467101 0.207685
235 5 0.219438 0.469277 0.208332
596 5 0.157802 0.278631 0.281557
611 5 0.125725 0.340305 0.281243
613 5 0.188003 0.341371 0.283301
614 5 0.220248 0.405135 0.283101
612 5 0.155067 0.402106 0.280878
627 5 0.126087 0.4687 0.281998
629 5 0.186279 0.464148 0.282827
432 5 0.250755 0.279344 0.257128
176 5 0.250905 0.279926 0.207636
430 5 0.282119 0.27886 0.232318
436 5 0.313081 0.280803 0.257138
434 5 0.345047 0.281775 0.232836
180 5 0.313218 0.282586 0.207662
461 5 0.251161 0.343146 0.233164
463 5 0.282269 0.34352 0.257118
467 5 0.344537 0.343304 0.257857
465 5 0.313854 0.342029 0.232228
207 5 0.281221 0.342761 0.208925
211 5 0.344899 0.343831 0.208252
464 5 0.251235 0.403813 0.258243
208 5 0.250565 0.406965 0.208834
462 5 0.28221 0.405189 0.233058
468 5 0.314524 0.40296 0.257401
466 5 0.344773 0.40564 0.232237
212 5 0.313087 0.406757 0.208557
617 5 0.313844 0.340766 0.281966
616 5 0.282932 0.403464 0.282222
618 5 0.346227 0.403213 0.283529
493 5 0.250932 0.467237 0.233592
495 5 0.282493 0.46648 0.257798
497 5 0.314419 0.467885 0.233185
243 5 0.345519 0.469299 0.207717
239 5 0.282325 0.468507 0.207632
499 5 0.345403 0.466525 0.25785
631 5 0.251887 0.46602 0.281914
633 5 0.314327 0.46614 0.281826
615 5 0.251322 0.342887 0.282005
600 5 0.282454 0.280717 0.281686
602 5 0.344327 0.280766 0.282451
469 5 0.376214 0.343293 0.232396
440 5 0.37629 0.281726 0.256329
184 5 0.37594 0.281167 0.208867
438 5 0.407662 0.281423 0.232399
444 5 0.439315 0.279611 0.256147
442 5 0.470567 0.281126 0.231956
188 5 0.43812 0.281533 0.208608
471 5 0.407397 0.342082 0.257375
475 5 0.470354 0.342107 0.256116
473 5 0.438676 0.34627 0.232678
215 5 0.407835 0.34231 0.208109
219 5 0.47025 0.343103 0.207844
472 5 0.376036 0.406969 0.258022
216 5 0.376436 0.406165 0.207905
470 5 0.406371 0.40553 0.232325
476 5 0.439131 0.409619 0.257157
474 5 0.470693 0.405373 0.231979
220 5 0.438786 0.405219 0.207281
621 5 0.438629 0.344086 0.280461
622 5 0.470467 0.404327 0.281248
501 5 0.375792 0.467988 0.232531
503 5 0.407106 0.467185 0.256691
507 5 0.471041 0.468001 0.25571
505 5 0.439263 0.465927 0.231131
251 5 0.470249 0.47029 0.208409
247 5 0.407448 0.466759 0.207464
637 5 0.438518 0.468362 0.28217
619 5 0.376999 0.341919 0.281966
604 5 0.409154 0.279997 0.281843
606 5 0.47093 0.28089 0.281534
620 5 0.407394 0.405103 0.281902
635 5 0.377755 0.469384 0.281747
484 5 0.0640144 0.530007 0.255215
482 5 0.0951646 0.529347 0.232197
228 5 0.0649759 0.529234 0.206716
259 5 0.0951438 0.593399 0.256239
257 5 0.0652694 0.593008 0.230629
3 5 0.0963972 0.593556 0.208027
260 5 0.0643561 0.65445 0.256463
258 5 0.0963773 0.655845 0.23206
4 5 0.0658925 0.656389 0.207674
513 5 0.0641672 0.590873 0.28099
291 5 0.0957835 0.717181 0.257268
289 5 0.0637483 0.718282 0.231688
35 5 0.0953252 0.718551 0.206586
626 5 0.0962145 0.529206 0.281067
514 5 0.096788 0.653448 0.282548
529 5 0.0648122 0.719079 0.282708
5458 5 0.0327937 0.532347 0.23124
5460 5 0.000972806 0.531098 0.256737
5204 5 0.00164863 0.531492 0.207431
5235 5 0.0317203 0.594577 0.257382
4979 5 0.0332194 0.59174 0.20659
5233 5 0.00186486 0.595006 0.231981
5234 5 0.0334837 0.654016 0.231209
5236 5 0.00139897 0.65604 0.256038
4980 5 0.00148206 0.654854 0.206826
5588 5 0.0327084 0.531139 0.28069
5475 5 0.00143915 0.594397 0.281584
5476 5 0.032574 0.656152 0.283244
5267 5 0.0338765 0.717392 0.257112
5011 5 0.0335037 0.719437 0.206896
5265 5 0.00187748 0.71524 0.232133
5491 5 0.00203371 0.716034 0.281224
488 5 0.126254 0.528713 0.255772
232 5 0.126952 0.530343 0.207953
486 5 0.157298 0.529267 0.232053
492 5 0.188228 0.529934 0.256898
490 5 0.220173 0.529905 0.233269
236 5 0.18884 0.530832 0.207262
261 5 0.126364 0.59134 0.232206
263 5 0.158403 0.592024 0.256185
267 5 0.220034 0.592195 0.257296
265 5 0.188678 0.593058 0.232236
7 5 0.157928 0.59293 0.207222
11 5 0.220652 0.59257 0.208636
264 5 0.126076 0.655132 0.256584
8 5 0.127291 0.655903 0.207967
262 5 0.157289 0.653085 0.231589
268 5 0.18902 0.655179 0.256517
266 5 0.222076 0.654162 0.232689
12 5 0.189991 0.654901 0.208427
628 5 0.158698 0.528993 0.281647
630 5 0.218757 0.526577 0.281401
293 5 0.126291 0.716062 0.231593
295 5 0.157708 0.71732 0.257284
299 5 0.220217 0.717186 0.257087
297 5 0.189307 0.718661 0.232981
39 5 0.157693 0.717631 0.207735
43 5 0.221116 0.716898 0.209279
531 5 0.127704 0.719569 0.281814
533 5 0.188779 0.716886 0.2828
515 5 0.127555 0.59113 0.280375
517 5 0.189468 0.592236 0.28216
516 5 0.158198 0.655497 0.282284
518 5 0.22017 0.656813 0.281757
496 5 0.251161 0.529167 0.257152
240 5 0.250901 0.530368 0.209089
494 5 0.282992 0.528444 0.23307
500 5 0.31471 0.528632 0.25766
498 5 0.344887 0.530491 0.23266
244 5 0.314303 0.529869 0.207344
269 5 0.252289 0.592846 0.232599
271 5 0.28225 0.589788 0.256671
275 5 0.345919 0.593587 0.257771
273 5 0.314736 0.592212 0.233708
15 5 0.283908 0.59093 0.20841
19 5 0.345628 0.589057 0.207744
16 5 0.252996 0.654091 0.20851
272 5 0.251337 0.655214 0.25727
270 5 0.284084 0.655757 0.233649
276 5 0.314915 0.654633 0.257279
274 5 0.345352 0.655048 0.232978
20 5 0.31472 0.655634 0.208264
632 5 0.282915 0.52985 0.282027
519 5 0.250535 0.590974 0.28245
521 5 0.313755 0.593736 0.2821
520 5 0.282441 0.652452 0.28127
301 5 0.252413 0.71689 0.232974
303 5 0.283881 0.719738 0.25742
307 5 0.345244 0.71886 0.256566
305 5 0.315177 0.719127 0.232463
47 5 0.283216 0.718688 0.20809
51 5 0.345928 0.71867 0.208346
537 5 0.314495 0.717986 0.281811
634 5 0.345298 0.530012 0.282349
522 5 0.34725 0.655797 0.2828
535 5 0.252086 0.718982 0.281953
504 5 0.376554 0.531018 0.257167
248 5 0.376632 0.525737 0.207272
502 5 0.407502 0.52856 0.231716
508 5 0.438399 0.528978 0.256091
506 5 0.470254 0.532594 0.23242
252 5 0.438601 0.529749 0.20816
277 5 0.377064 0.590799 0.231886
279 5 0.407817 0.59206 0.256895
283 5 0.469961 0.592785 0.256246
281 5 0.438923 0.592789 0.232563
23 5 0.408028 0.591268 0.208629
27 5 0.469936 0.590336 0.206859
280 5 0.377706 0.657221 0.256687
24 5 0.376944 0.654919 0.208748
278 5 0.408914 0.656344 0.232498
284 5 0.438401 0.654296 0.257075
282 5 0.46947 0.65466 0.230741
28 5 0.43924 0.652753 0.206575
638 5 0.470453 0.531276 0.282
524 5 0.407759 0.656082 0.283161
526 5 0.470936 0.655571 0.280783
309 5 0.377289 0.71856 0.232496
311 5 0.408528 0.718425 0.257886
315 5 0.469078 0.716894 0.256771
313 5 0.439755 0.717994 0.232091
55 5 0.408641 0.71812 0.208042
59 5 0.470831 0.717816 0.207702
541 5 0.439458 0.714999 0.281808
523 5 0.376524 0.594274 0.282859
636 5 0.407472 0.531235 0.283121
525 5 0.439674 0.593547 0.281571
539 5 0.376258 0.720033 0.282592
355 5 0.0954936 0.966376 0.255517
353 5 0.0633387 0.96987 0.231134
99 5 0.0952851 0.967527 0.207507
324 5 0.0645992 0.90334 0.255512
322 5 0.0964669 0.904096 0.232058
68 5 0.0656844 0.904367 0.207711
323 5 0.0962552 0.842549 0.25709
321 5 0.064492 0.84211 0.231642
67 5 0.0950152 0.842345 0.207135
292 5 0.0643619 0.779434 0.256675
290 5 0.0961224 0.78025 0.231696
36 5 0.0641093 0.779772 0.207069
530 5 0.0950261 0.782527 0.281134
561 5 0.0634271 0.964703 0.280167
546 5 0.095068 0.905235 0.282492
545 5 0.0638419 0.843543 0.280895
5331 5 0.0332932 0.968895 0.256991
5075 5 0.0326453 0.967457 0.206296
5329 5 0.00213922 0.967111 0.231789
5523 5 0.000889228 0.966782 0.281022
5298 5 0.0339315 0.906051 0.231837
5300 5 0.00177391 0.903995 0.25645
5044 5 0.000119086 0.906408 0.206568
5299 5 0.0313991 0.842406 0.256332
5043 5 0.0329722 0.843033 0.207361
5297 5 0.00097775 0.843339 0.231726
5266 5 0.0322523 0.781669 0.23148
5268 5 0.00155896 0.779834 0.257119
5012 5 0.00094418 0.779743 0.207511
5508 5 0.0327692 0.906644 0.282085
5507 5 0.000570767 0.843031 0.281675
5492 5 0.0334423 0.781086 0.281907
563 5 0.126155 0.969673 0.281488
357 5 0.127829 0.967771 0.230851
361 5 0.188775 0.966501 0.231911
103 5 0.15825 0.967358 0.206164
107 5 0.219275 0.967374 0.206979
359 5 0.158272 0.966353 0.256778
363 5 0.219312 0.969187 0.257047
72 5 0.12676 0.903673 0.207172
328 5 0.126987 0.906918 0.25743
326 5 0.157467 0.903837 0.231861
332 5 0.189796 0.905108 0.256697
330 5 0.220066 0.906678 0.232223
76 5 0.188768 0.904464 0.207428
325 5 0.126376 0.841176 0.232574
327 5 0.15774 0.84416 0.257383
331 5 0.220898 0.843673 0.256414
329 5 0.189177 0.843502 0.231483
75 5 0.219171 0.841782 0.208157
71 5 0.158022 0.842473 0.20719
40 5 0.1268 0.78041 0.207042
296 5 0.127085 0.779112 0.256491
294 5 0.157918 0.78162 0.233067
300 5 0.189808 0.781474 0.25745
298 5 0.220444 0.779857 0.232849
44 5 0.188925 0.781872 0.207888
550 5 0.221447 0.906782 0.281541
547 5 0.127099 0.842208 0.281996
549 5 0.188946 0.843296 0.282185
532 5 0.158576 0.781075 0.281217
565 5 0.189941 0.965974 0.281763
534 5 0.221282 0.780153 0.280656
548 5 0.158049 0.906125 0.283001
365 5 0.251274 0.967316 0.232651
367 5 0.282594 0.967191 0.257464
371 5 0.34532 0.968404 0.257107
369 5 0.31346 0.967679 0.232335
115 5 0.345931 0.96667 0.207466
111 5 0.282838 0.966438 0.207926
567 5 0.250624 0.969889 0.282022
336 5 0.251486 0.90695 0.256934
80 5 0.250798 0.90643 0.207739
334 5 0.283127 0.904719 0.23258
340 5 0.314066 0.905795 0.257272
338 5 0.345884 0.905189 0.232296
84 5 0.314286 0.907084 0.207316
333 5 0.250748 0.842178 0.232432
335 5 0.282612 0.844512 0.257306
339 5 0.345047 0.843945 0.257459
337 5 0.313816 0.845329 0.232715
83 5 0.345032 0.842882 0.208241
79 5 0.282269 0.84365 0.208408
304 5 0.252572 0.7809 0.257161
48 5 0.251706 0.780692 0.208139
302 5 0.283475 0.77877 0.232017
308 5 0.314045 0.782714 0.256965
306 5 0.34542 0.783323 0.232942
52 5 0.314347 0.780973 0.208357
569 5 0.314408 0.967567 0.282963
551 5 0.251611 0.84474 0.281131
552 5 0.28181 0.907193 0.282772
554 5 0.345779 0.906265 0.283987
553 5 0.314594 0.845511 0.281963
536 5 0.28398 0.782335 0.281526
538 5 0.345334 0.781834 0.281747
373 5 0.377411 0.966941 0.232795
375 5 0.407473 0.969178 0.257287
379 5 0.470673 0.967966 0.256256
377 5 0.439471 0.968053 0.232109
119 5 0.407701 0.968679 0.207994
123 5 0.4702 0.967077 0.206861
344 5 0.375309 0.907293 0.257985
88 5 0.377427 0.905 0.207451
342 5 0.408591 0.906666 0.233039
348 5 0.439423 0.907986 0.257528
346 5 0.470388 0.904567 0.232003
92 5 0.439334 0.904957 0.207192
341 5 0.377056 0.842731 0.233515
343 5 0.407952 0.841948 0.257411
347 5 0.47097 0.842466 0.257177
345 5 0.439942 0.843651 0.232365
87 5 0.408113 0.843437 0.208728
91 5 0.470964 0.844458 0.206846
312 5 0.376758 0.780916 0.257374
56 5 0.377301 0.781908 0.208088
310 5 0.409103 0.780072 0.232862
316 5 0.439433 0.780108 0.257109
314 5 0.470409 0.776918 0.232365
60 5 0.440362 0.780347 0.207617
558 5 0.47076 0.906357 0.282148
555 5 0.376673 0.844644 0.281938
540 5 0.408843 0.780487 0.282181
571 5 0.376385 0.969364 0.282121
573 5 0.439884 0.96952 0.282095
556 5 0.408885 0.904181 0.28115
557 5 0.440134 0.841405 0.282297
542 5 0.471237 0.780209 0.28239
1570 2 0.0649608 0.0532786 0.356208
1569 1 0.0641039 0.0669797 0.345623
1571 2 0.0511073 0.0811558 0.345914
1953 1 0.022987 0.0232868 0.347376
1737 1 0.0629961 0.0226288 0.313019
1739 2 0.0644676 0.0329421 0.324172
1738 2 0.0753104 0.00686695 0.311119
1379 2 0.0978678 0.0864789 0.320016
1377 1 0.0888824 0.0927738 0.310851
1378 2 0.0841025 0.0663819 0.307036
1713 1 0.110189 0.0965391 0.342109
1715 2 0.108669 0.0782839 0.35145
2362 2 0.108741 0.0125566 0.35748
2361 1 0.100248 0.0297833 0.364382
1954 2 0.0170212 0.0499927 0.3455
1714 2 0.10845 0.12364 0.346726
2938 2 0.0163184 0.126536 0.38704
2363 2 0.0887202 0.012653 0.3673
1955 2 0.0139741 0.0104171 0.355319
1624 2 0.0401496 0.157691 0.359185
1574 2 0.0684203 0.126124 0.346237
1572 1 0.0630467 0.153663 0.346965
1623 1 0.025975 0.161721 0.362241
1573 2 0.0616784 0.162425 0.335589
1401 1 0.0633037 0.160328 0.311383
1596 1 0.102075 0.169557 0.361848
1402 2 0.0727678 0.13759 0.311927
1597 2 0.100971 0.152906 0.371702
1598 2 0.088378 0.179901 0.360056
2937 1 0.0221249 0.108639 0.395339
1985 2 0.112774 0.212805 0.371656
1403 2 0.0712461 0.182544 0.306754
1625 2 0.0224612 0.188157 0.357654
1405 2 0.105198 0.197798 0.312495
1810 2 0.0411263 0.189618 0.309383
1809 1 0.0330703 0.214446 0.309805
1817 2 0.0893209 0.244233 0.330101
2530 2 0.0622578 0.0527549 0.390922
2529 1 0.0535942 0.0607537 0.381772
2531 2 0.0431723 0.0778431 0.386731
2506 2 0.0676636 0.116733 0.38176
2505 1 0.0726381 0.144217 0.383687
2339 2 0.109657 0.065487 0.381058
1549 2 0.110114 0.130972 0.311257
1380 1 0.124669 0.0342973 0.310617
1548 1 0.120756 0.151441 0.312174
2337 1 0.118299 0.0842976 0.387111
2939 2 0.0110958 0.0901999 0.398211
1404 1 0.0949386 0.218228 0.309982
1619 2 0.0217955 0.223588 0.33089
1617 1 0.0184758 0.225804 0.342516
1406 2 0.102379 0.239678 0.304332
1811 2 0.0412775 0.234556 0.304045
1983 1 0.122338 0.229178 0.377957
2507 2 0.0707921 0.148509 0.395432
1622 2 0.0609222 0.206393 0.383051
2338 2 0.115454 0.0785252 0.39862
1620 1 0.0608569 0.234536 0.379324
6348 2 0.040227 0.0666826 0.308987
6346 1 0.0354793 0.0923099 0.313597
9887 3 0.00122865 0.0890458 0.316261
6540 2 0.0121102 0.122755 0.349702
6347 2 0.0459873 0.111891 0.310682
6343 1 0.00114617 0.162031 0.311029
6538 1 0.00478167 0.100918 0.344201
6345 2 0.0122461 0.181633 0.310922
1764 1 0.131504 0.0132424 0.342149
1381 2 0.127006 0.02565 0.321904
1382 2 0.133585 0.057665 0.309153
1766 2 0.137458 0.0363413 0.347888
1558 2 0.195093 0.033719 0.356358
1546 2 0.184784 0.0241528 0.327574
1557 1 0.187612 0.0134525 0.350066
2154 1 0.154044 0.0306307 0.38458
1547 2 0.171818 0.00556087 0.313719
1545 1 0.18228 0.0258783 0.315802
1757 2 0.22665 0.0332041 0.336651
2156 2 0.163085 0.0364901 0.375405
1553 2 0.161071 0.071768 0.312409
1366 2 0.238393 0.0517618 0.307226
1384 2 0.23121 0.115246 0.306261
1755 1 0.23639 0.0430074 0.344747
2155 2 0.142713 0.0493688 0.383156
1583 2 0.160347 0.0860973 0.343547
1551 1 0.152956 0.0965009 0.311835
1385 2 0.207881 0.11204 0.307321
1383 1 0.220154 0.0955623 0.306606
1582 2 0.141624 0.105607 0.35174
1581 1 0.152158 0.0852589 0.35351
1756 2 0.228047 0.052456 0.353865
1550 2 0.133075 0.137537 0.308632
1552 2 0.162328 0.117116 0.30778
1772 2 0.221996 0.20219 0.35797
1768 2 0.168905 0.151625 0.341343
1771 2 0.21245 0.206515 0.340778
1788 1 0.142462 0.174303 0.340627
1789 2 0.131042 0.16661 0.333672
1576 2 0.184233 0.14185 0.321715
1575 1 0.184021 0.149886 0.3102
1577 2 0.175754 0.174452 0.30998
1981 2 0.177915 0.120374 0.384729
1767 1 0.181699 0.136776 0.341894
1980 1 0.192358 0.122067 0.382178
1769 2 0.190625 0.154195 0.348346
1982 2 0.196241 0.149489 0.385432
1770 1 0.211756 0.190318 0.350779
2143 2 0.233259 0.140237 0.345432
1790 2 0.136205 0.1862 0.350348
1409 2 0.227594 0.198901 0.312052
2395 2 0.150533 0.218729 0.378467
2204 2 0.207915 0.0824916 0.375301
2144 2 0.244705 0.0995403 0.343933
2142 1 0.246784 0.128862 0.343814
1387 2 0.249649 0.146083 0.322838
1599 1 0.153552 0.211189 0.311115
1407 1 0.221934 0.223475 0.316919
1408 2 0.231417 0.244903 0.313835
1601 2 0.152016 0.200579 0.322217
1600 2 0.165588 0.228392 0.311653
1792 2 0.173922 0.234464 0.356807
2394 1 0.165219 0.214938 0.378435
2396 2 0.170553 0.239324 0.383682
2203 2 0.224983 0.0548243 0.381857
2202 1 0.215596 0.0580075 0.372693
1961 2 0.165304 0.18495 0.398943
1989 1 0.212792 0.195616 0.39535
1990 2 0.227351 0.19391 0.393276
1956 1 0.242993 0.0828385 0.399436
1561 2 0.263385 0.0182631 0.342844
1560 1 0.276514 0.00482493 0.341778
1365 1 0.250462 0.0350285 0.308765
1367 2 0.260905 0.0540419 0.312365
2333 2 0.364362 0.00940536 0.314834
1369 2 0.325086 0.040739 0.31476
1368 1 0.311962 0.0272796 0.315827
1946 2 0.335411 0.00214357 0.349428
2525 2 0.332049 0.114593 0.3104
1370 2 0.302054 0.0483058 0.313196
2175 1 0.312654 0.0466082 0.351108
2177 2 0.308372 0.0308789 0.360638
1964 2 0.270483 0.110099 0.307923
1962 1 0.283645 0.0965459 0.30819
2523 1 0.341802 0.0930443 0.312696
2524 2 0.343346 0.0934022 0.324595
1963 2 0.293505 0.11864 0.30832
2376 1 0.35776 0.0888477 0.375453
2378 2 0.356574 0.0624556 0.380797
2176 2 0.304751 0.035518 0.342036
2374 2 0.358472 0.0990779 0.354965
1390 2 0.31547 0.151212 0.326394
1823 2 0.30616 0.108601 0.35154
1821 1 0.307444 0.136647 0.347838
1386 1 0.251815 0.151937 0.31124
1388 2 0.263183 0.170914 0.311095
1606 2 0.36418 0.141366 0.307179
2373 1 0.360031 0.107841 0.343606
2375 2 0.366294 0.13461 0.344378
1389 1 0.314875 0.153894 0.314488
1391 2 0.304377 0.174231 0.312564
1822 2 0.315469 0.149901 0.356349
2543 2 0.263159 0.134352 0.360239
2179 2 0.344655 0.13988 0.37883
2332 2 0.365644 0.0492683 0.304951
1579 2 0.271951 0.216253 0.381555
2180 2 0.347273 0.18296 0.371708
1609 2 0.337087 0.194033 0.309607
1413 1 0.283067 0.211782 0.317589
2541 1 0.274009 0.137556 0.368279
2542 2 0.285921 0.144699 0.361783
2014 2 0.343017 0.236794 0.332874
2312 2 0.365731 0.208896 0.345874
2178 1 0.336958 0.163382 0.375045
1776 1 0.281035 0.0626028 0.384432
2516 2 0.293123 0.0161623 0.385008
1778 2 0.276602 0.0789932 0.375133
2377 2 0.372346 0.0933096 0.374447
2502 1 0.365181 0.0185476 0.394475
2331 1 0.373979 0.0297128 0.3109
1610 2 0.332189 0.239829 0.309237
1608 1 0.343255 0.220701 0.311105
1415 2 0.290398 0.23726 0.316132
1414 2 0.283459 0.206829 0.329381
2230 2 0.296561 0.245165 0.356602
2013 1 0.344942 0.240482 0.344643
2229 1 0.285285 0.227019 0.354073
2231 2 0.273482 0.244824 0.353384
1777 2 0.291841 0.0784974 0.389501
1957 2 0.255119 0.0751564 0.39331
2567 2 0.374017 0.209117 0.386992
2563 2 0.325219 0.194173 0.393426
2565 1 0.373205 0.186004 0.394444
1578 1 0.259892 0.226102 0.387246
1580 2 0.258522 0.208204 0.396714
2564 2 0.309485 0.227235 0.397678
1782 1 0.497697 0.0164547 0.315878
2310 1 0.377133 0.19017 0.344848
2311 2 0.379515 0.188184 0.333066
1753 2 0.378031 0.0154564 0.350442
1752 1 0.389775 0.0261316 0.344566
1607 2 0.384959 0.125169 0.312959
1754 2 0.384207 0.0367533 0.334343
1974 1 0.428013 0.00647094 0.346451
1975 2 0.413752 0.0138653 0.345244
1585 2 0.427709 0.0610924 0.312478
1584 1 0.435826 0.0374893 0.315514
1586 2 0.433278 0.0338863 0.327211
1588 2 0.457088 0.074077 0.316155
2528 2 0.437895 0.0347322 0.368528
1587 1 0.467131 0.0946253 0.313257
1950 1 0.408432 0.10217 0.313239
1951 2 0.409577 0.103521 0.325155
1591 2 0.49285 0.0963117 0.351038
2527 2 0.424542 0.0683098 0.376124
2526 1 0.436501 0.0516762 0.378277
2544 1 0.467545 0.103746 0.368159
2545 2 0.455305 0.0915102 0.372732
1952 2 0.418248 0.122017 0.309243
1589 2 0.459229 0.119327 0.311582
2383 2 0.45694 0.15172 0.350452
2334 1 0.408995 0.0997419 0.345864
2336 2 0.403978 0.126539 0.348951
2335 2 0.397516 0.0816159 0.34774
2568 1 0.401853 0.103718 0.380269
2546 2 0.472937 0.120449 0.377027
2570 2 0.406493 0.104702 0.391624
1605 1 0.376673 0.149703 0.312649
1394 2 0.442755 0.163525 0.326363
1392 1 0.441664 0.16032 0.314501
1393 2 0.452344 0.177655 0.310069
2569 2 0.407366 0.128288 0.37529
2384 2 0.460876 0.197724 0.348849
2382 1 0.450539 0.17702 0.346997
1396 2 0.48922 0.177928 0.314037
1420 2 0.420164 0.19076 0.314482
1421 2 0.397793 0.188876 0.308934
1419 1 0.407742 0.20684 0.314019
2381 2 0.402987 0.189231 0.35733
2380 2 0.425409 0.176001 0.358487
2548 2 0.418346 0.0279467 0.393843
2911 2 0.468917 0.157811 0.397884
2910 1 0.483399 0.153676 0.396027
2912 2 0.489058 0.181021 0.395575
1633 2 0.474557 0.241232 0.333117
1632 1 0.477201 0.243808 0.344844
1634 2 0.491709 0.238559 0.345957
1614 1 0.468765 0.226794 0.311512
1616 2 0.456841 0.244355 0.311532
1615 2 0.480061 0.244968 0.309074
2379 1 0.412475 0.174352 0.364277
2189 2 0.423935 0.229798 0.383908