ITEM: TIMESTEP
0
ITEM: NUMBER OF ATOMS
6
ITEM: BOX BOUNDS pp pp pp
-2.5000000000000000e+01 2.5000000000000000e+01
-2.0000000000000000e+01 2.0000000000000000e+01
-2.0000000000000000e+01 2.0000000000000000e+01
ITEM: ATOMS id type xs ys zs
5 1 0.0132901 0.112409 0.353483
1 2 0.676335 0.593158 0.343017
4 1 0.828793 0.295669 0.475166
6 1 0.78933 0.374985 0.788345
2 1 0.719147 0.0628805 0.915057
3 1 0.732012 0.679289 0.883043
ITEM: TIMESTEP
1000000
ITEM: NUMBER OF ATOMS
6
ITEM: BOX BOUNDS pp pp pp
-2.5000000000000000e+01 2.5000000000000000e+01
-2.0000000000000000e+01 2.0000000000000000e+01
-2.0000000000000000e+01 2.0000000000000000e+01
ITEM: ATOMS id type xs ys zs
3 1 0.00142071 0.177425 0.356806
2 1 0.0319869 0.100737 0.518437
1 2 0.0184488 0.503488 0.499915
4 1 0.077377 0.74291 0.748779
5 1 0.846259 0.95823 0.920219
6 1 0.106845 0.885251 0.971088
ITEM: TIMESTEP
2000000
ITEM: NUMBER OF ATOMS
6
ITEM: BOX BOUNDS pp pp pp
-2.5000000000000000e+01 2.5000000000000000e+01
-2.0000000000000000e+01 2.0000000000000000e+01
-2.0000000000000000e+01 2.0000000000000000e+01
ITEM: ATOMS id type xs ys zs
5 1 0.144571 0.0425685 0.0839618
2 1 0.17507 0.66318 0.309218
3 1 0.219802 0.828534 0.317255
1 2 0.0376055 0.502611 0.501175
4 1 0.33786 0.00891454 0.899506
6 1 0.863262 0.0217177 0.972104
ITEM: TIMESTEP
3000000
ITEM: NUMBER OF ATOMS
6
ITEM: BOX BOUNDS pp pp pp
-2.5000000000000000e+01 2.5000000000000000e+01
-2.0000000000000000e+01 2.0000000000000000e+01
-2.0000000000000000e+01 2.0000000000000000e+01
ITEM: ATOMS id type xs ys zs
3 1 0.311827 0.431392 0.131212
6 1 0.207093 0.993731 0.237865
2 1 0.130808 0.390403 0.464027
1 2 0.0592473 0.497766 0.49383
5 1 0.139281 0.257407 0.776116
4 1 0.795098 0.232507 0.853293
ITEM: TIMESTEP
4000000
ITEM: NUMBER OF ATOMS
6
ITEM: BOX BOUNDS pp pp pp
-2.5000000000000000e+01 2.5000000000000000e+01
-2.0000000000000000e+01 2.0000000000000000e+01
-2.0000000000000000e+01 2.0000000000000000e+01
ITEM: ATOMS id type xs ys zs
2 1 0.955866 0.544246 0.21812
3 1 0.83966 0.680924 0.348325
1 2 0.0734484 0.501258 0.50703
5 1 0.958015 0.298448 0.679655
4 1 0.221088 0.507524 0.76394
6 1 0.964407 0.328735 0.920093
ITEM: TIMESTEP
5000000
ITEM: NUMBER OF ATOMS
6
ITEM: BOX BOUNDS pp pp pp
-2.5000000000000000e+01 2.5000000000000000e+01
-2.0000000000000000e+01 2.0000000000000000e+01
-2.0000000000000000e+01 2.0000000000000000e+01
ITEM: ATOMS id type xs ys zs
3 1 0.772319 0.800871 0.0111881
6 1 0.765787 0.607785 0.275523
4 1 0.158236 0.569932 0.442576
1 2 0.0988601 0.493151 0.496738
2 1 0.119333 0.560141 0.726357
5 1 0.950767 0.870841 0.917966
ITEM: TIMESTEP
6000000
ITEM: NUMBER OF ATOMS
6
ITEM: BOX BOUNDS pp pp pp
-2.5000000000000000e+01 2.5000000000000000e+01
-2.0000000000000000e+01 2.0000000000000000e+01
-2.0000000000000000e+01 2.0000000000000000e+01
ITEM: ATOMS id type xs ys zs
3 1 0.976724 0.669028 0.0312593
5 1 0.334526 0.15786 0.393372
1 2 0.101818 0.501887 0.500047
4 1 0.0244419 0.172997 0.633903
6 1 0.913557 0.735546 0.809152
2 1 0.0605845 0.0866621 0.044432
ITEM: TIMESTEP
7000000
ITEM: NUMBER OF ATOMS
6
ITEM: BOX BOUNDS pp pp pp
-2.5000000000000000e+01 2.5000000000000000e+01
-2.0000000000000000e+01 2.0000000000000000e+01
-2.0000000000000000e+01 2.0000000000000000e+01
ITEM: ATOMS id type xs ys zs
4 1 0.911873 0.566949 0.216151
5 1 0.766056 0.997038 0.337992
3 1 0.933966 0.84728 0.351186
6 1 0.286972 0.433922 0.553328
1 2 0.120031 0.503985 0.499595
2 1 0.908122 0.67297 0.724122
ITEM: TIMESTEP
8000000
ITEM: NUMBER OF ATOMS
6
ITEM: BOX BOUNDS pp pp pp
-2.5000000000000000e+01 2.5000000000000000e+01
-2.0000000000000000e+01 2.0000000000000000e+01
-2.0000000000000000e+01 2.0000000000000000e+01
ITEM: ATOMS id type xs ys zs
6 1 0.799611 0.698509 0.306114
4 1 0.961485 0.20873 0.499118
1 2 0.141828 0.501008 0.498211
3 1 0.72498 0.0225404 0.535166
2 1 0.728561 0.817114 0.636658
5 1 0.985085 0.230047 0.708853
ITEM: TIMESTEP
9000000
ITEM: NUMBER OF ATOMS
6
ITEM: BOX BOUNDS pp pp pp
-2.5000000000000000e+01 2.5000000000000000e+01
-2.0000000000000000e+01 2.0000000000000000e+01
-2.0000000000000000e+01 2.0000000000000000e+01
ITEM: ATOMS id type xs ys zs
2 1 0.8716 0.923007 0.0865881
4 1 0.917683 0.564331 0.191035
5 1 0.771874 0.136373 0.387919
1 2 0.161488 0.507523 0.497914
6 1 0.0943341 0.730795 0.680106
3 1 0.0244598 0.259398 0.811058
ITEM: TIMESTEP
10000000
ITEM: NUMBER OF ATOMS
6
ITEM: BOX BOUNDS pp pp pp
-2.5000000000000000e+01 2.5000000000000000e+01
-2.0000000000000000e+01 2.0000000000000000e+01
-2.0000000000000000e+01 2.0000000000000000e+01
ITEM: ATOMS id type xs ys zs
4 1 0.93471 0.679617 0.116626
6 1 0.0508223 0.419929 0.195045
5 1 0.792429 0.912511 0.387841
1 2 0.177694 0.503126 0.500336
3 1 0.959945 0.811047 0.49344
2 1 0.198008 0.84957 0.704347
ITEM: TIMESTEP
11000000
ITEM: NUMBER OF ATOMS
6
ITEM: BOX BOUNDS pp pp pp
-2.5000000000000000e+01 2.5000000000000000e+01
-2.0000000000000000e+01 2.0000000000000000e+01
-2.0000000000000000e+01 2.0000000000000000e+01
ITEM: ATOMS id type xs ys zs
3 1 0.170867 0.967381 0.0126423
5 1 0.191879 0.647889 0.318035
1 2 0.198741 0.501926 0.498576
4 1 0.174483 0.951469 0.755137
6 1 0.800676 0.179093 0.865961
2 1 0.863037 0.977274 0.858679
ITEM: TIMESTEP
12000000
ITEM: NUMBER OF ATOMS
6
ITEM: BOX BOUNDS pp pp pp
-2.5000000000000000e+01 2.5000000000000000e+01
-2.0000000000000000e+01 2.0000000000000000e+01
-2.0000000000000000e+01 2.0000000000000000e+01
ITEM: ATOMS id type xs ys zs
6 1 0.812591 0.00574545 0.042201
3 1 0.794043 0.303004 0.219466
4 1 0.668123 0.176451 0.46889
1 2 0.203493 0.509038 0.494899
2 1 0.933793 0.420817 0.746299
5 1 0.248137 0.508497 0.748234
ITEM: TIMESTEP
13000000
ITEM: NUMBER OF ATOMS
6
ITEM: BOX BOUNDS pp pp pp
-2.5000000000000000e+01 2.5000000000000000e+01
-2.0000000000000000e+01 2.0000000000000000e+01
-2.0000000000000000e+01 2.0000000000000000e+01
ITEM: ATOMS id type xs ys zs
6 1 0.0859121 0.0996739 0.321677
3 1 0.868485 0.882213 0.303705
1 2 0.219736 0.50491 0.492514
5 1 0.900436 0.696233 0.63816
2 1 0.217281 0.097977 0.746209
4 1 0.123448 0.643619 0.911068
ITEM: TIMESTEP
14000000
ITEM: NUMBER OF ATOMS
6
ITEM: BOX BOUNDS pp pp pp
-2.5000000000000000e+01 2.5000000000000000e+01
-2.0000000000000000e+01 2.0000000000000000e+01
-2.0000000000000000e+01 2.0000000000000000e+01
ITEM: ATOMS id type xs ys zs
5 1 0.959837 0.670708 0.4257
1 2 0.24354 0.499619 0.497718
4 1 0.659761 0.659826 0.512538
3 1 0.934561 0.530798 0.676507
6 1 0.154709 0.182821 0.946457
2 1 0.18271 0.938931 0.947589
ITEM: TIMESTEP
15000000
ITEM: NUMBER OF ATOMS
6
ITEM: BOX BOUNDS pp pp pp
-2.5000000000000000e+01 2.5000000000000000e+01
-2.0000000000000000e+01 2.0000000000000000e+01
-2.0000000000000000e+01 2.0000000000000000e+01
ITEM: ATOMS id type xs ys zs
5 1 0.0753686 0.490285 0.138214
6 1 0.913188 0.746546 0.135123
2 1 0.0643151 0.833647 0.267872
1 2 0.258975 0.501608 0.494913
4 1 0.222833 0.266884 0.633756
3 1 0.0963895 0.433261 0.60539
ITEM: TIMESTEP
16000000
ITEM: NUMBER OF ATOMS
6
ITEM: BOX BOUNDS pp pp pp
-2.5000000000000000e+01 2.5000000000000000e+01
-2.0000000000000000e+01 2.0000000000000000e+01
-2.0000000000000000e+01 2.0000000000000000e+01
ITEM: ATOMS id type xs ys zs
6 1 0.859607 0.248837 0.00404201
5 1 0.0948743 0.0388029 0.370778
4 1 0.126882 0.44015 0.38265
1 2 0.274382 0.496549 0.5009
2 1 0.90548 0.982077 0.491968
3 1 0.200206 0.363786 0.826731
ITEM: TIMESTEP
17000000
ITEM: NUMBER OF ATOMS
6
ITEM: BOX BOUNDS pp pp pp
-2.5000000000000000e+01 2.5000000000000000e+01
-2.0000000000000000e+01 2.0000000000000000e+01
-2.0000000000000000e+01 2.0000000000000000e+01
ITEM: ATOMS id type xs ys zs
4 1 0.687245 0.90022 0.988289
2 1 0.0330643 0.129397 0.282728
3 1 0.0984478 0.335508 0.521338
1 2 0.300937 0.500207 0.502262
5 1 0.209645 0.164589 0.576213
6 1 0.106385 0.173158 0.898593
ITEM: TIMESTEP
18000000
ITEM: NUMBER OF ATOMS
6
ITEM: BOX BOUNDS pp pp pp
-2.5000000000000000e+01 2.5000000000000000e+01
-2.0000000000000000e+01 2.0000000000000000e+01
-2.0000000000000000e+01 2.0000000000000000e+01
ITEM: ATOMS id type xs ys zs
4 1 0.795752 0.212103 0.306686
5 1 0.0441545 0.278598 0.388518
1 2 0.298929 0.498386 0.498911
2 1 0.948056 0.634613 0.688172
3 1 0.241495 0.270912 0.750643
6 1 0.857837 0.688921 0.754106
ITEM: TIMESTEP
19000000
ITEM: NUMBER OF ATOMS
6
ITEM: BOX BOUNDS pp pp pp
-2.5000000000000000e+01 2.5000000000000000e+01
-2.0000000000000000e+01 2.0000000000000000e+01
-2.0000000000000000e+01 2.0000000000000000e+01
ITEM: ATOMS id type xs ys zs
6 1 0.804706 0.132997 0.0663149
5 1 0.957474 0.0558703 0.0257404
4 1 0.982765 0.980355 0.324284
1 2 0.320339 0.505914 0.504218
3 1 0.113579 0.101028 0.555573
2 1 0.926656 0.180092 0.724222
ITEM: TIMESTEP
20000000
ITEM: NUMBER OF ATOMS
6
ITEM: BOX BOUNDS pp pp pp
-2.5000000000000000e+01 2.5000000000000000e+01
-2.0000000000000000e+01 2.0000000000000000e+01
-2.0000000000000000e+01 2.0000000000000000e+01
ITEM: ATOMS id type xs ys zs
5 1 0.805298 0.777373 0.213091
6 1 0.0590049 0.0732138 0.499982
1 2 0.33931 0.492473 0.49655
4 1 0.287207 0.427287 0.599654
2 1 0.029168 0.233449 0.62532
3 1 0.273673 0.107664 0.730068
ITEM: TIMESTEP
21000000
ITEM: NUMBER OF ATOMS
6
ITEM: BOX BOUNDS pp pp pp
-2.5000000000000000e+01 2.5000000000000000e+01
-2.0000000000000000e+01 2.0000000000000000e+01
-2.0000000000000000e+01 2.0000000000000000e+01
ITEM: ATOMS id type xs ys zs
6 1 0.86413 0.624402 0.204437
3 1 0.0745496 0.680658 0.420481
1 2 0.362894 0.493488 0.505197
5 1 0.966688 0.319207 0.680814
4 1 0.141089 0.93149 0.804196
2 1 0.137373 0.951663 0.911858
ITEM: TIMESTEP
22000000
ITEM: NUMBER OF ATOMS
6
ITEM: BOX BOUNDS pp pp pp
-2.5000000000000000e+01 2.5000000000000000e+01
-2.0000000000000000e+01 2.0000000000000000e+01
-2.0000000000000000e+01 2.0000000000000000e+01
ITEM: ATOMS id type xs ys zs
5 1 0.75116 0.247403 0.387697
1 2 0.377832 0.49731 0.494342
3 1 0.952625 0.478443 0.593614
2 1 0.277877 0.0726192 0.626689
6 1 0.0549399 0.728678 0.738558
4 1 0.212702 0.369916 0.910406
ITEM: TIMESTEP
23000000
ITEM: NUMBER OF ATOMS
6
ITEM: BOX BOUNDS pp pp pp
-2.5000000000000000e+01 2.5000000000000000e+01
-2.0000000000000000e+01 2.0000000000000000e+01
-2.0000000000000000e+01 2.0000000000000000e+01
ITEM: ATOMS id type xs ys zs
2 1 0.106357 0.606516 0.0557103
6 1 0.0618393 0.706463 0.0730729
3 1 0.278308 0.316974 0.481342
1 2 0.39815 0.505847 0.501187
5 1 0.2382 0.629075 0.571007
4 1 0.880381 0.681705 0.790478
ITEM: TIMESTEP
24000000
ITEM: NUMBER OF ATOMS
6
ITEM: BOX BOUNDS pp pp pp
-2.5000000000000000e+01 2.5000000000000000e+01
-2.0000000000000000e+01 2.0000000000000000e+01
-2.0000000000000000e+01 2.0000000000000000e+01
ITEM: ATOMS id type xs ys zs
5 1 0.219065 0.972332 0.147823
3 1 0.261163 0.155189 0.398197
1 2 0.397865 0.506879 0.499882
4 1 0.94305 0.312395 0.648355
6 1 0.736077 0.580438 0.789333
2 1 0.860406 0.526111 0.876846
ITEM: TIMESTEP
25000000
ITEM: NUMBER OF ATOMS
6
ITEM: BOX BOUNDS pp pp pp
-2.5000000000000000e+01 2.5000000000000000e+01
-2.0000000000000000e+01 2.0000000000000000e+01
-2.0000000000000000e+01 2.0000000000000000e+01
ITEM: ATOMS id type xs ys zs
3 1 0.249978 0.297814 0.296131
6 1 0.185071 0.486827 0.364308
2 1 0.793438 0.891367 0.356145
4 1 0.976882 0.987469 0.399035
1 2 0.420104 0.498788 0.501318
5 1 0.0774168 0.240519 0.648403
ITEM: TIMESTEP
26000000
ITEM: NUMBER OF ATOMS
6
ITEM: BOX BOUNDS pp pp pp
-2.5000000000000000e+01 2.5000000000000000e+01
-2.0000000000000000e+01 2.0000000000000000e+01
-2.0000000000000000e+01 2.0000000000000000e+01
ITEM: ATOMS id type xs ys zs
3 1 0.259901 0.366326 0.397364
4 1 0.88496 0.00765599 0.471606
1 2 0.441845 0.503816 0.496235
5 1 0.710532 0.0233987 0.643198
2 1 0.909167 0.577952 0.767397
6 1 0.033822 0.796131 0.901143
ITEM: TIMESTEP
27000000
ITEM: NUMBER OF ATOMS
6
ITEM: BOX BOUNDS pp pp pp
-2.5000000000000000e+01 2.5000000000000000e+01
-2.0000000000000000e+01 2.0000000000000000e+01
-2.0000000000000000e+01 2.0000000000000000e+01
ITEM: ATOMS id type xs ys zs
5 1 0.979578 0.649414 0.0716976
3 1 0.884087 0.416668 0.101757
6 1 0.196607 0.350037 0.349366
1 2 0.456338 0.507615 0.500199
4 1 0.257175 0.35633 0.724762
2 1 0.814267 0.672694 0.897871
ITEM: TIMESTEP
28000000
ITEM: NUMBER OF ATOMS
6
ITEM: BOX BOUNDS pp pp pp
-2.5000000000000000e+01 2.5000000000000000e+01
-2.0000000000000000e+01 2.0000000000000000e+01
-2.0000000000000000e+01 2.0000000000000000e+01
ITEM: ATOMS id type xs ys zs
2 1 0.944264 0.555398 0.127664
1 2 0.479359 0.503223 0.497825
6 1 0.767516 0.577028 0.476332
3 1 0.88042 0.723572 0.515276
4 1 0.88829 0.439024 0.56434
5 1 0.802244 0.835054 0.892317
ITEM: TIMESTEP
29000000
ITEM: NUMBER OF ATOMS
6
ITEM: BOX BOUNDS pp pp pp
-2.5000000000000000e+01 2.5000000000000000e+01
-2.0000000000000000e+01 2.0000000000000000e+01
-2.0000000000000000e+01 2.0000000000000000e+01
ITEM: ATOMS id type xs ys zs
6 1 0.106935 0.750256 0.265215
4 1 0.32473 0.970389 0.428368
1 2 0.498731 0.49949 0.503397
2 1 0.760266 0.440801 0.592183
5 1 0.246567 0.597683 0.541027
3 1 0.870606 0.341462 0.711875
ITEM: TIMESTEP
30000000
ITEM: NUMBER OF ATOMS
6
ITEM: BOX BOUNDS pp pp pp
-2.5000000000000000e+01 2.5000000000000000e+01
-2.0000000000000000e+01 2.0000000000000000e+01
-2.0000000000000000e+01 2.0000000000000000e+01
ITEM: ATOMS id type xs ys zs
2 1 0.148886 0.264527 0.0440483
3 1 0.861114 0.446084 0.186104
4 1 0.154979 0.289388 0.4271
5 1 0.057447 0.663811 0.403246
1 2 0.501063 0.497761 0.500537
6 1 0.680659 0.631097 0.596393
ITEM: TIMESTEP
31000000
ITEM: NUMBER OF ATOMS
6
ITEM: BOX BOUNDS pp pp pp
-2.5000000000000000e+01 2.5000000000000000e+01
-2.0000000000000000e+01 2.0000000000000000e+01
-2.0000000000000000e+01 2.0000000000000000e+01
ITEM: ATOMS id type xs ys zs
5 1 0.760727 0.699558 0.245416
3 1 0.240746 0.367897 0.356491
4 1 0.952197 0.30808 0.442987
6 1 0.89741 0.0968574 0.512376
2 1 0.868538 0.314147 0.460126
1 2 0.518071 0.506076 0.499364
ITEM: TIMESTEP
32000000
ITEM: NUMBER OF ATOMS
6
ITEM: BOX BOUNDS pp pp pp
-2.5000000000000000e+01 2.5000000000000000e+01
-2.0000000000000000e+01 2.0000000000000000e+01
-2.0000000000000000e+01 2.0000000000000000e+01
ITEM: ATOMS id type xs ys zs
3 1 0.313922 0.143668 0.0773691
4 1 0.804907 0.240706 0.304555
2 1 0.120853 0.600584 0.361889
1 2 0.543815 0.501968 0.494769
6 1 0.282218 0.252989 0.566867
5 1 0.911165 0.794083 0.807276
ITEM: TIMESTEP
33000000
ITEM: NUMBER OF ATOMS
6
ITEM: BOX BOUNDS pp pp pp
-2.5000000000000000e+01 2.5000000000000000e+01
-2.0000000000000000e+01 2.0000000000000000e+01
-2.0000000000000000e+01 2.0000000000000000e+01
ITEM: ATOMS id type xs ys zs
5 1 0.0490354 0.472662 0.256664
3 1 0.282896 0.338349 0.389599
4 1 0.952608 0.750896 0.337393
1 2 0.558474 0.497876 0.499243
6 1 0.24907 0.640583 0.800249
2 1 0.190096 0.697211 0.912726
ITEM: TIMESTEP
34000000
ITEM: NUMBER OF ATOMS
6
ITEM: BOX BOUNDS pp pp pp
-2.5000000000000000e+01 2.5000000000000000e+01
-2.0000000000000000e+01 2.0000000000000000e+01
-2.0000000000000000e+01 2.0000000000000000e+01
ITEM: ATOMS id type xs ys zs
4 1 0.0414566 0.574102 0.168568
1 2 0.578865 0.503218 0.500378
2 1 0.12846 0.0667456 0.6815
6 1 0.00595931 0.158836 0.793575
3 1 0.915213 0.0327901 0.904834
5 1 0.103441 0.339285 0.897029
ITEM: TIMESTEP
35000000
ITEM: NUMBER OF ATOMS
6
ITEM: BOX BOUNDS pp pp pp
-2.5000000000000000e+01 2.5000000000000000e+01
-2.0000000000000000e+01 2.0000000000000000e+01
-2.0000000000000000e+01 2.0000000000000000e+01
ITEM: ATOMS id type xs ys zs
2 1 0.279999 0.138076 0.482054
1 2 0.608313 0.500093 0.49917
6 1 0.933487 0.77498 0.621743
5 1 0.180919 0.339934 0.756884
3 1 0.156052 0.681542 0.822478
4 1 0.155191 0.234951 0.98574
ITEM: TIMESTEP
36000000
ITEM: NUMBER OF ATOMS
6
ITEM: BOX BOUNDS pp pp pp
-2.5000000000000000e+01 2.5000000000000000e+01
-2.0000000000000000e+01 2.0000000000000000e+01
-2.0000000000000000e+01 2.0000000000000000e+01
ITEM: ATOMS id type xs ys zs
4 1 0.896422 0.2493 0.154731
1 2 0.605742 0.49968 0.501525
5 1 0.907446 0.670507 0.684969
3 1 0.173388 0.234703 0.758855
2 1 0.178718 0.795665 0.728955
6 1 0.14412 0.879634 0.711892
ITEM: TIMESTEP
37000000
ITEM: NUMBER OF ATOMS
6
ITEM: BOX BOUNDS pp pp pp
-2.5000000000000000e+01 2.5000000000000000e+01
-2.0000000000000000e+01 2.0000000000000000e+01
-2.0000000000000000e+01 2.0000000000000000e+01
ITEM: ATOMS id type xs ys zs
4 1 0.87034 0.250956 0.119514
5 1 0.0495406 0.388833 0.139884
2 1 0.0251061 0.125274 0.332026
6 1 0.250893 0.846917 0.452205
1 2 0.624853 0.497779 0.497743
3 1 0.794593 0.635645 0.524477
ITEM: TIMESTEP
38000000
ITEM: NUMBER OF ATOMS
6
ITEM: BOX BOUNDS pp pp pp
-2.5000000000000000e+01 2.5000000000000000e+01
-2.0000000000000000e+01 2.0000000000000000e+01
-2.0000000000000000e+01 2.0000000000000000e+01
ITEM: ATOMS id type xs ys zs
6 1 0.0762495 0.817506 0.0582993
3 1 0.139853 0.507999 0.175675
1 2 0.641244 0.49868 0.500358
4 1 0.795011 0.511793 0.515309
5 1 0.931504 0.345947 0.947684
2 1 0.230972 0.674266 0.0126766
ITEM: TIMESTEP
39000000
ITEM: NUMBER OF ATOMS
6
ITEM: BOX BOUNDS pp pp pp
-2.5000000000000000e+01 2.5000000000000000e+01
-2.0000000000000000e+01 2.0000000000000000e+01
-2.0000000000000000e+01 2.0000000000000000e+01
ITEM: ATOMS id type xs ys zs
4 1 0.119881 0.155928 0.277851
2 1 0.0387837 0.496073 0.273139
6 1 0.106667 0.734643 0.334689
5 1 0.140654 0.157279 0.433874
1 2 0.661991 0.497989 0.497219
3 1 0.916731 0.282084 0.770235
ITEM: TIMESTEP
40000000
ITEM: NUMBER OF ATOMS
6
ITEM: BOX BOUNDS pp pp pp
-2.5000000000000000e+01 2.5000000000000000e+01
-2.0000000000000000e+01 2.0000000000000000e+01
-2.0000000000000000e+01 2.0000000000000000e+01
ITEM: ATOMS id type xs ys zs
5 1 0.962258 0.699394 0.0162993
4 1 0.253136 0.393046 0.117157
3 1 0.179007 0.817037 0.154639
2 1 0.811194 0.909937 0.296102
1 2 0.67825 0.506604 0.501138
6 1 0.851087 0.498905 0.919028
ITEM: TIMESTEP
41000000
ITEM: NUMBER OF ATOMS
6
ITEM: BOX BOUNDS pp pp pp
-2.5000000000000000e+01 2.5000000000000000e+01
-2.0000000000000000e+01 2.0000000000000000e+01
-2.0000000000000000e+01 2.0000000000000000e+01
ITEM: ATOMS id type xs ys zs
5 1 0.336493 0.312469 0.0743932
3 1 0.969477 0.656682 0.11516
1 2 0.696654 0.496167 0.500607
2 1 0.815683 0.472254 0.626836
6 1 0.0215596 0.107895 0.716281
4 1 0.180154 0.257906 0.0173944
ITEM: TIMESTEP
42000000
ITEM: NUMBER OF ATOMS
6
ITEM: BOX BOUNDS pp pp pp
-2.5000000000000000e+01 2.5000000000000000e+01
-2.0000000000000000e+01 2.0000000000000000e+01
-2.0000000000000000e+01 2.0000000000000000e+01
ITEM: ATOMS id type xs ys zs
3 1 0.921546 0.818659 0.136999
4 1 0.845832 0.602614 0.4293
5 1 0.176034 0.284599 0.507895
1 2 0.701022 0.501375 0.49904
6 1 0.320163 0.87406 0.467433
2 1 0.959297 0.857989 0.972851
ITEM: TIMESTEP
43000000
ITEM: NUMBER OF ATOMS
6
ITEM: BOX BOUNDS pp pp pp
-2.5000000000000000e+01 2.5000000000000000e+01
-2.0000000000000000e+01 2.0000000000000000e+01
-2.0000000000000000e+01 2.0000000000000000e+01
ITEM: ATOMS id type xs ys zs
3 1 0.681999 0.360044 0.450561
4 1 0.0628717 0.102003 0.523068
6 1 0.0204977 0.365986 0.483538
1 2 0.722465 0.498085 0.501112
2 1 0.833387 0.679099 0.763133
5 1 0.0639803 0.933066 0.957405
ITEM: TIMESTEP
44000000
ITEM: NUMBER OF ATOMS
6
ITEM: BOX BOUNDS pp pp pp
-2.5000000000000000e+01 2.5000000000000000e+01
-2.0000000000000000e+01 2.0000000000000000e+01
-2.0000000000000000e+01 2.0000000000000000e+01
ITEM: ATOMS id type xs ys zs
3 1 0.953999 0.921483 0.265494
5 1 1.00416 0.469452 0.4976
1 2 0.737991 0.498425 0.501862
2 1 0.00425182 0.169637 0.556275
4 1 0.830697 0.307265 0.832092
6 1 0.918765 0.315577 0.912888
ITEM: TIMESTEP
45000000
ITEM: NUMBER OF ATOMS
6
ITEM: BOX BOUNDS pp pp pp
-2.5000000000000000e+01 2.5000000000000000e+01
-2.0000000000000000e+01 2.0000000000000000e+01
-2.0000000000000000e+01 2.0000000000000000e+01
ITEM: ATOMS id type xs ys zs
3 1 0.966793 0.431719 0.0502963
5 1 0.207314 0.210596 0.462106
1 2 0.756718 0.501178 0.502251
6 1 0.848256 0.859993 0.511444
4 1 0.966932 0.15816 0.544788
2 1 0.234023 0.421132 0.704512
ITEM: TIMESTEP
46000000
ITEM: NUMBER OF ATOMS
6
ITEM: BOX BOUNDS pp pp pp
-2.5000000000000000e+01 2.5000000000000000e+01
-2.0000000000000000e+01 2.0000000000000000e+01
-2.0000000000000000e+01 2.0000000000000000e+01
ITEM: ATOMS id type xs ys zs
6 1 0.288238 0.532105 0.124012
4 1 0.201748 0.00637349 0.355537
2 1 0.901678 0.848926 0.334218
1 2 0.775198 0.49767 0.497576
3 1 0.073584 0.849277 0.70261
5 1 0.0453404 0.450013 0.678159
ITEM: TIMESTEP
47000000
ITEM: NUMBER OF ATOMS
6
ITEM: BOX BOUNDS pp pp pp
-2.5000000000000000e+01 2.5000000000000000e+01
-2.0000000000000000e+01 2.0000000000000000e+01
-2.0000000000000000e+01 2.0000000000000000e+01
ITEM: ATOMS id type xs ys zs
2 1 0.0234394 0.0778165 0.251455
3 1 0.00824818 0.307001 0.465872
1 2 0.799108 0.49525 0.500038
6 1 0.10647 0.495347 0.564315
4 1 0.848147 0.461118 0.623813
5 1 0.01107 0.763929 0.931976
ITEM: TIMESTEP
48000000
ITEM: NUMBER OF ATOMS
6
ITEM: BOX BOUNDS pp pp pp
-2.5000000000000000e+01 2.5000000000000000e+01
-2.0000000000000000e+01 2.0000000000000000e+01
-2.0000000000000000e+01 2.0000000000000000e+01
ITEM: ATOMS id type xs ys zs
3 1 0.239694 0.410108 0.198844
4 1 0.0790853 0.327388 0.226803
5 1 0.182158 0.963818 0.397334
1 2 0.79943 0.500481 0.502069
6 1 0.952426 0.339449 0.662798
2 1 0.931937 0.723441 0.781962
ITEM: TIMESTEP
49000000
ITEM: NUMBER OF ATOMS
6
ITEM: BOX BOUNDS pp pp pp
-2.5000000000000000e+01 2.5000000000000000e+01
-2.0000000000000000e+01 2.0000000000000000e+01
-2.0000000000000000e+01 2.0000000000000000e+01
ITEM: ATOMS id type xs ys zs
4 1 0.73401 0.195672 0.479395
1 2 0.81896 0.498593 0.500812
6 1 0.154661 0.462163 0.550077
3 1 0.76998 0.381327 0.600395
5 1 0.182064 0.302906 0.608172
2 1 0.941812 0.667891 0.891935
ITEM: TIMESTEP
50000000
ITEM: NUMBER OF ATOMS
6
ITEM: BOX BOUNDS pp pp pp
-2.5000000000000000e+01 2.5000000000000000e+01
-2.0000000000000000e+01 2.0000000000000000e+01
-2.0000000000000000e+01 2.0000000000000000e+01
ITEM: ATOMS id type xs ys zs
5 1 0.173311 0.950634 0.230129
4 1 0.148625 0.893385 0.362536
1 2 0.841862 0.496853 0.501713
3 1 0.161583 0.311094 0.768401
2 1 0.316573 0.128355 0.843606
6 1 0.988847 0.628941 0.953689
ITEM: TIMESTEP
51000000
ITEM: NUMBER OF ATOMS
6
ITEM: BOX BOUNDS pp pp pp
-2.5000000000000000e+01 2.5000000000000000e+01
-2.0000000000000000e+01 2.0000000000000000e+01
-2.0000000000000000e+01 2.0000000000000000e+01
ITEM: ATOMS id type xs ys zs
6 1 0.935783 0.461544 0.0122084
3 1 0.161086 0.251163 0.244601
4 1 0.13044 0.94929 0.301237
1 2 0.862562 0.496993 0.494176
2 1 0.738038 0.539415 0.815197
5 1 0.847205 0.763431 0.826491
ITEM: TIMESTEP
52000000
ITEM: NUMBER OF ATOMS
6
ITEM: BOX BOUNDS pp pp pp
-2.5000000000000000e+01 2.5000000000000000e+01
-2.0000000000000000e+01 2.0000000000000000e+01
-2.0000000000000000e+01 2.0000000000000000e+01
ITEM: ATOMS id type xs ys zs
6 1 0.969504 0.184382 0.490816
1 2 0.881744 0.507353 0.503594
5 1 0.34959 0.922365 0.567115
4 1 0.136928 0.189704 0.824042
3 1 0.290248 0.719497 0.785137
2 1 0.0831846 0.404343 0.852815
ITEM: TIMESTEP
53000000
ITEM: NUMBER OF ATOMS
6
ITEM: BOX BOUNDS pp pp pp
-2.5000000000000000e+01 2.5000000000000000e+01
-2.0000000000000000e+01 2.0000000000000000e+01
-2.0000000000000000e+01 2.0000000000000000e+01
ITEM: ATOMS id type xs ys zs
2 1 0.317578 0.189528 0.177783
4 1 0.182282 0.429433 0.410847
1 2 0.904978 0.499172 0.499659
6 1 0.155217 0.732474 0.490099
5 1 0.16706 0.988505 0.693941
3 1 0.175829 0.764372 0.748723
ITEM: TIMESTEP
54000000
ITEM: NUMBER OF ATOMS
6
ITEM: BOX BOUNDS pp pp pp
-2.5000000000000000e+01 2.5000000000000000e+01
-2.0000000000000000e+01 2.0000000000000000e+01
-2.0000000000000000e+01 2.0000000000000000e+01
ITEM: ATOMS id type xs ys zs
6 1 0.979286 0.993006 0.30562
1 2 0.901375 0.504371 0.495194
2 1 0.160463 0.0571729 0.676404
4 1 0.818814 0.412456 0.844564
5 1 0.0857265 0.0310291 0.778263
3 1 0.820816 0.273966 0.977672
ITEM: TIMESTEP
55000000
ITEM: NUMBER OF ATOMS
6
ITEM: BOX BOUNDS pp pp pp
-2.5000000000000000e+01 2.5000000000000000e+01
-2.0000000000000000e+01 2.0000000000000000e+01
-2.0000000000000000e+01 2.0000000000000000e+01
ITEM: ATOMS id type xs ys zs
4 1 0.15158 0.465258 0.28694
2 1 0.231212 0.0925931 0.452613
1 2 0.917576 0.503336 0.494473
5 1 0.30536 0.714499 0.801452
3 1 0.685992 0.162316 0.846355
6 1 0.905131 0.132174 0.897741
ITEM: TIMESTEP
56000000
ITEM: NUMBER OF ATOMS
6
ITEM: BOX BOUNDS pp pp pp
-2.5000000000000000e+01 2.5000000000000000e+01
-2.0000000000000000e+01 2.0000000000000000e+01
-2.0000000000000000e+01 2.0000000000000000e+01
ITEM: ATOMS id type xs ys zs
6 1 0.687607 0.628766 0.319933
4 1 0.649752 0.122074 0.340642
3 1 0.904138 0.701501 0.33097
1 2 0.940565 0.50341 0.502134
2 1 0.0815143 0.868806 0.521474
5 1 0.953806 0.870905 0.808042
ITEM: TIMESTEP
57000000
ITEM: NUMBER OF ATOMS
6
ITEM: BOX BOUNDS pp pp pp
-2.5000000000000000e+01 2.5000000000000000e+01
-2.0000000000000000e+01 2.0000000000000000e+01
-2.0000000000000000e+01 2.0000000000000000e+01
ITEM: ATOMS id type xs ys zs
6 1 0.227153 0.803979 0.989006
2 1 0.988195 0.30954 0.35678
3 1 0.694583 0.250096 0.506007
1 2 0.957025 0.497541 0.496475
5 1 0.152561 0.778259 0.473073
4 1 0.0832138 0.187353 0.727015
ITEM: TIMESTEP
58000000
ITEM: NUMBER OF ATOMS
6
ITEM: BOX BOUNDS pp pp pp
-2.5000000000000000e+01 2.5000000000000000e+01
-2.0000000000000000e+01 2.0000000000000000e+01
-2.0000000000000000e+01 2.0000000000000000e+01
ITEM: ATOMS id type xs ys zs
5 1 0.259844 0.347772 0.207363
3 1 0.898989 0.754631 0.299616
2 1 0.0522306 0.783596 0.273724
1 2 0.982167 0.501087 0.499627
6 1 0.825388 0.360303 0.799459
4 1 0.018062 0.907636 0.937413
ITEM: TIMESTEP
59000000
ITEM: NUMBER OF ATOMS
6
ITEM: BOX BOUNDS pp pp pp
-2.5000000000000000e+01 2.5000000000000000e+01
-2.0000000000000000e+01 2.0000000000000000e+01
-2.0000000000000000e+01 2.0000000000000000e+01
ITEM: ATOMS id type xs ys zs
4 1 0.98586 0.593869 0.171878
3 1 0.121736 0.228448 0.302665
5 1 0.909905 0.0490526 0.369197
1 2 0.999235 0.503111 0.497518
2 1 0.927507 0.434203 0.832104
6 1 0.835978 0.17229 0.979853
ITEM: TIMESTEP
60000000
ITEM: NUMBER OF ATOMS
6
ITEM: BOX BOUNDS pp pp pp
-2.5000000000000000e+01 2.5000000000000000e+01
-2.0000000000000000e+01 2.0000000000000000e+01
-2.0000000000000000e+01 2.0000000000000000e+01
ITEM: ATOMS id type xs ys zs
2 1 0.249505 0.993059 0.990232
4 1 0.0931908 0.731385 0.256343
1 2 0.00273929 0.499452 0.50178
5 1 0.0503911 0.798768 0.523842
3 1 0.062305 0.935802 0.471493
6 1 0.0957156 0.959176 0.830449
