LAMMPS (29 Sep 2021 - Update 2)
OMP_NUM_THREADS environment is not set. Defaulting to 1 thread. (src/comm.cpp:98)
  using 1 OpenMP thread(s) per MPI task
# LAMMPS input script
# author : Simon Gravelle
# lammpstutorials.github.io

# define a bunch of variables
variable sigma equal 3.405 # Angstrom
variable epsilon equal 0.238 # Kcal/mol
variable U0 equal 10*${epsilon} # Kcal/mol
variable U0 equal 10*0.238 
variable dlt equal 0.5 # Angstrom
variable x0 equal 5.0 # Angstrom
variable k equal 15 # Kcal/mol/Angstrom^2

# initialise the simulation
units real
atom_style atomic
pair_style lj/cut 3.822 # 2^(1/6) * 3.405 WCA potential
pair_modify shift yes
boundary p p p

# define the system
region myreg block -25 25 -20 20 -20 20
create_box 2 myreg
Created orthogonal box = (-25.000000 -20.000000 -20.000000) to (25.000000 20.000000 20.000000)
  1 by 1 by 1 MPI processor grid
create_atoms 2 single 0 0 0
Created 1 atoms
  using lattice units in orthogonal box = (-25.000000 -20.000000 -20.000000) to (25.000000 20.000000 20.000000)
  create_atoms CPU = 0.000 seconds
create_atoms 1 random 5 341341 myreg
Created 5 atoms
  using lattice units in orthogonal box = (-25.000000 -20.000000 -20.000000) to (25.000000 20.000000 20.000000)
  create_atoms CPU = 0.000 seconds

# settings
mass * 39.948
pair_coeff * * ${epsilon} ${sigma}
pair_coeff * * 0.238 ${sigma}
pair_coeff * * 0.238 3.405
neigh_modify every 1 delay 4 check yes
group topull type 2
1 atoms in group topull

# run
variable U atom ${U0}*atan((x+${x0})/${dlt})-${U0}*atan((x-${x0})/${dlt})
variable U atom 2.38*atan((x+${x0})/${dlt})-${U0}*atan((x-${x0})/${dlt})
variable U atom 2.38*atan((x+5)/${dlt})-${U0}*atan((x-${x0})/${dlt})
variable U atom 2.38*atan((x+5)/0.5)-${U0}*atan((x-${x0})/${dlt})
variable U atom 2.38*atan((x+5)/0.5)-2.38*atan((x-${x0})/${dlt})
variable U atom 2.38*atan((x+5)/0.5)-2.38*atan((x-5)/${dlt})
variable U atom 2.38*atan((x+5)/0.5)-2.38*atan((x-5)/0.5)
variable F atom ${U0}/((x-${x0})^2/${dlt}^2+1)/${dlt}-${U0}/((x+${x0})^2/${dlt}^2+1)/${dlt}
variable F atom 2.38/((x-${x0})^2/${dlt}^2+1)/${dlt}-${U0}/((x+${x0})^2/${dlt}^2+1)/${dlt}
variable F atom 2.38/((x-5)^2/${dlt}^2+1)/${dlt}-${U0}/((x+${x0})^2/${dlt}^2+1)/${dlt}
variable F atom 2.38/((x-5)^2/0.5^2+1)/${dlt}-${U0}/((x+${x0})^2/${dlt}^2+1)/${dlt}
variable F atom 2.38/((x-5)^2/0.5^2+1)/0.5-${U0}/((x+${x0})^2/${dlt}^2+1)/${dlt}
variable F atom 2.38/((x-5)^2/0.5^2+1)/0.5-2.38/((x+${x0})^2/${dlt}^2+1)/${dlt}
variable F atom 2.38/((x-5)^2/0.5^2+1)/0.5-2.38/((x+5)^2/${dlt}^2+1)/${dlt}
variable F atom 2.38/((x-5)^2/0.5^2+1)/0.5-2.38/((x+5)^2/0.5^2+1)/${dlt}
variable F atom 2.38/((x-5)^2/0.5^2+1)/0.5-2.38/((x+5)^2/0.5^2+1)/0.5
fix pot all addforce v_F 0.0 0.0 energy v_U

fix mynve all nve
fix mylgv all langevin 119.8 119.8 100 1530917
timestep 2.0
thermo 100000
run 2000000
Neighbor list info ...
  update every 1 steps, delay 4 steps, check yes
  max neighbors/atom: 2000, page size: 100000
  master list distance cutoff = 5.822
  ghost atom cutoff = 5.822
  binsize = 2.911, bins = 18 14 14
  1 neighbor lists, perpetual/occasional/extra = 1 0 0
  (1) pair lj/cut, perpetual
      attributes: half, newton on
      pair build: half/bin/atomonly/newton
      stencil: half/bin/3d
      bin: standard
Per MPI rank memory allocation (min/avg/max) = 3.588 | 3.588 | 3.588 Mbytes
Step Temp E_pair E_mol TotEng Press 
       0            0            0            0            0            0 
  100000    144.27464            0            0    2.1502765    1.2286754 
  200000    128.87393            0            0    1.9207435    1.0975195 
  300000    105.63962            0            0    1.5744582   0.89965085 
  400000    128.55471            0            0    1.9159858    1.0948009 
  500000    147.17089            0            0    2.1934423    1.2533405 
  600000    179.73914            0            0    2.6788412    1.5306991 
  700000    232.10339            0            0    3.4592806    1.9766449 
  800000    107.18199            0            0    1.5974458   0.91278607 
  900000    127.91015            0            0    1.9063792    1.0893117 
 1000000    142.78185            0            0    2.1280279    1.2159625 
 1100000      222.829            0            0    3.3210545     1.897662 
 1200000    138.65062            0            0    2.0664557      1.18078 
 1300000     103.3186            0            0    1.5398656   0.87988453 
 1400000     161.4875            0            0    2.4068178     1.375264 
 1500000     137.8119            0            0    2.0539555    1.1736373 
 1600000    108.41217            0            0    1.6157805   0.92326256 
 1700000    136.81855            0            0    2.0391505    1.1651777 
 1800000    108.41587            0            0    1.6158355   0.92329399 
 1900000    164.70502            0            0    2.4547718    1.4026651 
 2000000    161.99531            0            0    2.4143863    1.3795887 
Loop time of 8.61554 on 1 procs for 2000000 steps with 6 atoms

Performance: 40113.546 ns/day, 0.001 hours/ns, 232138.579 timesteps/s
100.0% CPU use with 1 MPI tasks x 1 OpenMP threads

MPI task timing breakdown:
Section |  min time  |  avg time  |  max time  |%varavg| %total
---------------------------------------------------------------
Pair    | 0.070202   | 0.070202   | 0.070202   |   0.0 |  0.81
Neigh   | 0.018906   | 0.018906   | 0.018906   |   0.0 |  0.22
Comm    | 0.18488    | 0.18488    | 0.18488    |   0.0 |  2.15
Output  | 0.00026674 | 0.00026674 | 0.00026674 |   0.0 |  0.00
Modify  | 8.1579     | 8.1579     | 8.1579     |   0.0 | 94.69
Other   |            | 0.1834     |            |       |  2.13

Nlocal:        6.00000 ave           6 max           6 min
Histogram: 1 0 0 0 0 0 0 0 0 0
Nghost:        7.00000 ave           7 max           7 min
Histogram: 1 0 0 0 0 0 0 0 0 0
Neighs:         0.00000 ave           0 max           0 min
Histogram: 1 0 0 0 0 0 0 0 0 0

Total # of neighbors = 0
Ave neighs/atom = 0.0000000
Neighbor list builds = 8974
Dangerous builds = 0
reset_timestep 0

dump mydmp all atom 1000000 dump.lammpstrj

variable a loop 50
label loop
variable xdes equal ${a}-25
variable xdes equal 1-25
variable xave equal xcm(topull,x)
fix mytth topull spring tether ${k} ${xdes} 0 0 0
fix mytth topull spring tether 15 ${xdes} 0 0 0
fix mytth topull spring tether 15 -24 0 0 0
run 200000 # equilibrate
Per MPI rank memory allocation (min/avg/max) = 4.588 | 4.588 | 4.588 Mbytes
Step Temp E_pair E_mol TotEng Press 
       0    161.99531            0            0    2.4143863    1.3795887 
  100000    165.61928            0            0    2.4683981    1.4104512 
  200000    144.12296            0            0    2.1480159    1.2273837 
Loop time of 0.868507 on 1 procs for 200000 steps with 6 atoms

Performance: 39792.420 ns/day, 0.001 hours/ns, 230280.211 timesteps/s
100.0% CPU use with 1 MPI tasks x 1 OpenMP threads

MPI task timing breakdown:
Section |  min time  |  avg time  |  max time  |%varavg| %total
---------------------------------------------------------------
Pair    | 0.0073562  | 0.0073562  | 0.0073562  |   0.0 |  0.85
Neigh   | 0.0019533  | 0.0019533  | 0.0019533  |   0.0 |  0.22
Comm    | 0.01712    | 0.01712    | 0.01712    |   0.0 |  1.97
Output  | 1.9062e-05 | 1.9062e-05 | 1.9062e-05 |   0.0 |  0.00
Modify  | 0.82403    | 0.82403    | 0.82403    |   0.0 | 94.88
Other   |            | 0.01803    |            |       |  2.08

Nlocal:        6.00000 ave           6 max           6 min
Histogram: 1 0 0 0 0 0 0 0 0 0
Nghost:        6.00000 ave           6 max           6 min
Histogram: 1 0 0 0 0 0 0 0 0 0
Neighs:         0.00000 ave           0 max           0 min
Histogram: 1 0 0 0 0 0 0 0 0 0

Total # of neighbors = 0
Ave neighs/atom = 0.0000000
Neighbor list builds = 905
Dangerous builds = 43
fix myat1 all ave/time 10 10 100 v_xave v_xdes file position.${a}.dat
fix myat1 all ave/time 10 10 100 v_xave v_xdes file position.1.dat
run 1000000 # data aquisition
Per MPI rank memory allocation (min/avg/max) = 4.588 | 4.588 | 4.588 Mbytes
Step Temp E_pair E_mol TotEng Press 
  200000    144.12296            0            0    2.1480159    1.2273837 
  300000    141.95885            0            0    2.1157618    1.2089536 
  400000    108.93915            0            0    1.6236346   0.92775043 
  500000    92.088755   0.11765724            0    1.4901527    1.7613365 
  600000    91.624492            0            0     1.365576   0.78029486 
  700000     172.6962            0            0    2.5738729    1.4707199 
  800000     191.9386            0            0    2.8606626    1.6345925 
  900000    171.34762            0            0    2.5537735     1.459235 
 1000000    135.48703            0            0    2.0193055    1.1538381 
 1100000    149.93277            0            0    2.2346055    1.2768613 
 1200000    65.386563            0            0   0.97452462   0.55684674 
Loop time of 4.42396 on 1 procs for 1000000 steps with 6 atoms

Performance: 39060.028 ns/day, 0.001 hours/ns, 226041.827 timesteps/s
99.8% CPU use with 1 MPI tasks x 1 OpenMP threads

MPI task timing breakdown:
Section |  min time  |  avg time  |  max time  |%varavg| %total
---------------------------------------------------------------
Pair    | 0.038472   | 0.038472   | 0.038472   |   0.0 |  0.87
Neigh   | 0.008745   | 0.008745   | 0.008745   |   0.0 |  0.20
Comm    | 0.085626   | 0.085626   | 0.085626   |   0.0 |  1.94
Output  | 0.00012682 | 0.00012682 | 0.00012682 |   0.0 |  0.00
Modify  | 4.2004     | 4.2004     | 4.2004     |   0.0 | 94.95
Other   |            | 0.09056    |            |       |  2.05

Nlocal:        6.00000 ave           6 max           6 min
Histogram: 1 0 0 0 0 0 0 0 0 0
Nghost:        8.00000 ave           8 max           8 min
Histogram: 1 0 0 0 0 0 0 0 0 0
Neighs:         0.00000 ave           0 max           0 min
Histogram: 1 0 0 0 0 0 0 0 0 0

Total # of neighbors = 0
Ave neighs/atom = 0.0000000
Neighbor list builds = 4199
Dangerous builds = 0
unfix myat1
next a
jump SELF loop
variable xdes equal ${a}-25
variable xdes equal 2-25
variable xave equal xcm(topull,x)
fix mytth topull spring tether ${k} ${xdes} 0 0 0
fix mytth topull spring tether 15 ${xdes} 0 0 0
fix mytth topull spring tether 15 -23 0 0 0
run 200000 # equilibrate
Per MPI rank memory allocation (min/avg/max) = 4.588 | 4.588 | 4.588 Mbytes
Step Temp E_pair E_mol TotEng Press 
 1200000    65.386563            0            0   0.97452462   0.55684674 
 1300000    156.22114            0            0    2.3283278    1.3304145 
 1400000    139.98234            0            0    2.0863038    1.1921212 
Loop time of 0.864516 on 1 procs for 200000 steps with 6 atoms

Performance: 39976.117 ns/day, 0.001 hours/ns, 231343.272 timesteps/s
100.0% CPU use with 1 MPI tasks x 1 OpenMP threads

MPI task timing breakdown:
Section |  min time  |  avg time  |  max time  |%varavg| %total
---------------------------------------------------------------
Pair    | 0.0072205  | 0.0072205  | 0.0072205  |   0.0 |  0.84
Neigh   | 0.0017265  | 0.0017265  | 0.0017265  |   0.0 |  0.20
Comm    | 0.017791   | 0.017791   | 0.017791   |   0.0 |  2.06
Output  | 2.2168e-05 | 2.2168e-05 | 2.2168e-05 |   0.0 |  0.00
Modify  | 0.81985    | 0.81985    | 0.81985    |   0.0 | 94.83
Other   |            | 0.01791    |            |       |  2.07

Nlocal:        6.00000 ave           6 max           6 min
Histogram: 1 0 0 0 0 0 0 0 0 0
Nghost:        6.00000 ave           6 max           6 min
Histogram: 1 0 0 0 0 0 0 0 0 0
Neighs:         0.00000 ave           0 max           0 min
Histogram: 1 0 0 0 0 0 0 0 0 0

Total # of neighbors = 0
Ave neighs/atom = 0.0000000
Neighbor list builds = 845
Dangerous builds = 0
fix myat1 all ave/time 10 10 100 v_xave v_xdes file position.${a}.dat
fix myat1 all ave/time 10 10 100 v_xave v_xdes file position.2.dat
run 1000000 # data aquisition
Per MPI rank memory allocation (min/avg/max) = 4.588 | 4.588 | 4.588 Mbytes
Step Temp E_pair E_mol TotEng Press 
 1400000    139.98234            0            0    2.0863038    1.1921212 
 1500000    158.95046            0            0    2.3690057     1.353658 
 1600000    92.191788            0            0     1.374031   0.78512609 
 1700000    120.54085            0            0    1.7965469    1.0265531 
 1800000    82.854604            0            0    1.2348692   0.70560852 
 1900000    139.59052            0            0    2.0804642    1.1887844 
 2000000    129.36695            0            0    1.9280915    1.1017182 
 2100000    177.24667            0            0    2.6416933    1.5094727 
 2200000     67.87999            0            0    1.0116868   0.57808133 
 2300000    86.199992            0            0     1.284729    0.7340986 
 2400000    151.86282            0            0    2.2633711    1.2932981 
Loop time of 4.4638 on 1 procs for 1000000 steps with 6 atoms

Performance: 38711.395 ns/day, 0.001 hours/ns, 224024.277 timesteps/s
99.3% CPU use with 1 MPI tasks x 1 OpenMP threads

MPI task timing breakdown:
Section |  min time  |  avg time  |  max time  |%varavg| %total
---------------------------------------------------------------
Pair    | 0.03807    | 0.03807    | 0.03807    |   0.0 |  0.85
Neigh   | 0.0093562  | 0.0093562  | 0.0093562  |   0.0 |  0.21
Comm    | 0.091644   | 0.091644   | 0.091644   |   0.0 |  2.05
Output  | 0.00015985 | 0.00015985 | 0.00015985 |   0.0 |  0.00
Modify  | 4.2334     | 4.2334     | 4.2334     |   0.0 | 94.84
Other   |            | 0.0912     |            |       |  2.04

Nlocal:        6.00000 ave           6 max           6 min
Histogram: 1 0 0 0 0 0 0 0 0 0
Nghost:        11.0000 ave          11 max          11 min
Histogram: 1 0 0 0 0 0 0 0 0 0
Neighs:         0.00000 ave           0 max           0 min
Histogram: 1 0 0 0 0 0 0 0 0 0

Total # of neighbors = 0
Ave neighs/atom = 0.0000000
Neighbor list builds = 4247
Dangerous builds = 0
unfix myat1
next a
jump SELF loop
variable xdes equal ${a}-25
variable xdes equal 3-25
variable xave equal xcm(topull,x)
fix mytth topull spring tether ${k} ${xdes} 0 0 0
fix mytth topull spring tether 15 ${xdes} 0 0 0
fix mytth topull spring tether 15 -22 0 0 0
run 200000 # equilibrate
Per MPI rank memory allocation (min/avg/max) = 4.588 | 4.588 | 4.588 Mbytes
Step Temp E_pair E_mol TotEng Press 
 2400000    151.86282            0            0    2.2633711    1.2932981 
 2500000    175.86522            0            0     2.621104    1.4977079 
 2600000    162.59625            0            0    2.4233428    1.3847064 
Loop time of 0.881181 on 1 procs for 200000 steps with 6 atoms

Performance: 39220.076 ns/day, 0.001 hours/ns, 226968.030 timesteps/s
100.0% CPU use with 1 MPI tasks x 1 OpenMP threads

MPI task timing breakdown:
Section |  min time  |  avg time  |  max time  |%varavg| %total
---------------------------------------------------------------
Pair    | 0.0072394  | 0.0072394  | 0.0072394  |   0.0 |  0.82
Neigh   | 0.0017651  | 0.0017651  | 0.0017651  |   0.0 |  0.20
Comm    | 0.017998   | 0.017998   | 0.017998   |   0.0 |  2.04
Output  | 2.1383e-05 | 2.1383e-05 | 2.1383e-05 |   0.0 |  0.00
Modify  | 0.83576    | 0.83576    | 0.83576    |   0.0 | 94.85
Other   |            | 0.01839    |            |       |  2.09

Nlocal:        6.00000 ave           6 max           6 min
Histogram: 1 0 0 0 0 0 0 0 0 0
Nghost:        4.00000 ave           4 max           4 min
Histogram: 1 0 0 0 0 0 0 0 0 0
Neighs:         0.00000 ave           0 max           0 min
Histogram: 1 0 0 0 0 0 0 0 0 0

Total # of neighbors = 0
Ave neighs/atom = 0.0000000
Neighbor list builds = 837
Dangerous builds = 0
fix myat1 all ave/time 10 10 100 v_xave v_xdes file position.${a}.dat
fix myat1 all ave/time 10 10 100 v_xave v_xdes file position.3.dat
run 1000000 # data aquisition
Per MPI rank memory allocation (min/avg/max) = 4.588 | 4.588 | 4.588 Mbytes
Step Temp E_pair E_mol TotEng Press 
 2600000    162.59625            0            0    2.4233428    1.3847064 
 2700000    128.78146            0            0    1.9193653     1.096732 
 2800000    124.95606            0            0    1.8623514     1.064154 
 2900000    142.02085            0            0    2.1166858    1.2094816 
 3000000    102.86922            0            0    1.5331681   0.87605755 
 3100000     90.78617            0            0    1.3530816   0.77315553 
 3200000    32.620115            0            0   0.48617183   0.27780026 
 3300000    218.16204            0            0     3.251498    1.8579172 
 3400000    181.01639            0            0    2.6978774    1.5415765 
 3500000    141.10563            0            0    2.1030454    1.2016874 
 3600000    247.55202            0            0    3.6895278    2.1082089 
Loop time of 4.48628 on 1 procs for 1000000 steps with 6 atoms

Performance: 38517.423 ns/day, 0.001 hours/ns, 222901.751 timesteps/s
99.4% CPU use with 1 MPI tasks x 1 OpenMP threads

MPI task timing breakdown:
Section |  min time  |  avg time  |  max time  |%varavg| %total
---------------------------------------------------------------
Pair    | 0.037461   | 0.037461   | 0.037461   |   0.0 |  0.84
Neigh   | 0.0090352  | 0.0090352  | 0.0090352  |   0.0 |  0.20
Comm    | 0.088996   | 0.088996   | 0.088996   |   0.0 |  1.98
Output  | 0.00016247 | 0.00016247 | 0.00016247 |   0.0 |  0.00
Modify  | 4.2595     | 4.2595     | 4.2595     |   0.0 | 94.94
Other   |            | 0.09113    |            |       |  2.03

Nlocal:        6.00000 ave           6 max           6 min
Histogram: 1 0 0 0 0 0 0 0 0 0
Nghost:        3.00000 ave           3 max           3 min
Histogram: 1 0 0 0 0 0 0 0 0 0
Neighs:         0.00000 ave           0 max           0 min
Histogram: 1 0 0 0 0 0 0 0 0 0

Total # of neighbors = 0
Ave neighs/atom = 0.0000000
Neighbor list builds = 4256
Dangerous builds = 0
unfix myat1
next a
jump SELF loop
variable xdes equal ${a}-25
variable xdes equal 4-25
variable xave equal xcm(topull,x)
fix mytth topull spring tether ${k} ${xdes} 0 0 0
fix mytth topull spring tether 15 ${xdes} 0 0 0
fix mytth topull spring tether 15 -21 0 0 0
run 200000 # equilibrate
Per MPI rank memory allocation (min/avg/max) = 4.588 | 4.588 | 4.588 Mbytes
Step Temp E_pair E_mol TotEng Press 
 3600000    247.55202            0            0    3.6895278    2.1082089 
 3700000    102.01528            0            0    1.5204409   0.86878518 
 3800000     226.3513            0            0    3.3735511    1.9276588 
Loop time of 0.873433 on 1 procs for 200000 steps with 6 atoms

Performance: 39567.997 ns/day, 0.001 hours/ns, 228981.465 timesteps/s
100.0% CPU use with 1 MPI tasks x 1 OpenMP threads

MPI task timing breakdown:
Section |  min time  |  avg time  |  max time  |%varavg| %total
---------------------------------------------------------------
Pair    | 0.007157   | 0.007157   | 0.007157   |   0.0 |  0.82
Neigh   | 0.0017594  | 0.0017594  | 0.0017594  |   0.0 |  0.20
Comm    | 0.018254   | 0.018254   | 0.018254   |   0.0 |  2.09
Output  | 1.8585e-05 | 1.8585e-05 | 1.8585e-05 |   0.0 |  0.00
Modify  | 0.82818    | 0.82818    | 0.82818    |   0.0 | 94.82
Other   |            | 0.01806    |            |       |  2.07

Nlocal:        6.00000 ave           6 max           6 min
Histogram: 1 0 0 0 0 0 0 0 0 0
Nghost:        7.00000 ave           7 max           7 min
Histogram: 1 0 0 0 0 0 0 0 0 0
Neighs:         0.00000 ave           0 max           0 min
Histogram: 1 0 0 0 0 0 0 0 0 0

Total # of neighbors = 0
Ave neighs/atom = 0.0000000
Neighbor list builds = 850
Dangerous builds = 0
fix myat1 all ave/time 10 10 100 v_xave v_xdes file position.${a}.dat
fix myat1 all ave/time 10 10 100 v_xave v_xdes file position.4.dat
run 1000000 # data aquisition
Per MPI rank memory allocation (min/avg/max) = 4.588 | 4.588 | 4.588 Mbytes
Step Temp E_pair E_mol TotEng Press 
 3800000     226.3513            0            0    3.3735511    1.9276588 
 3900000    113.11697            0            0    1.6859011   0.96332969 
 4000000    120.87134            0            0    1.8014725    1.0293676 
 4100000    112.25331            0            0     1.673029   0.95597453 
 4200000     135.8665            0            0    2.0249611    1.1570698 
 4300000    106.64154            0            0    1.5893909   0.90818347 
 4400000    101.47274            0            0    1.5123548   0.86416476 
 4500000    192.66047            0            0    2.8714214    1.6407401 
 4600000     90.30722            0            0    1.3459433   0.76907668 
 4700000     204.3331            0            0    3.0453908    1.7401468 
 4800000     178.4506            0            0    2.6596367    1.5197256 
Loop time of 4.43674 on 1 procs for 1000000 steps with 6 atoms

Performance: 38947.490 ns/day, 0.001 hours/ns, 225390.567 timesteps/s
99.6% CPU use with 1 MPI tasks x 1 OpenMP threads

MPI task timing breakdown:
Section |  min time  |  avg time  |  max time  |%varavg| %total
---------------------------------------------------------------
Pair    | 0.037484   | 0.037484   | 0.037484   |   0.0 |  0.84
Neigh   | 0.0090672  | 0.0090672  | 0.0090672  |   0.0 |  0.20
Comm    | 0.092457   | 0.092457   | 0.092457   |   0.0 |  2.08
Output  | 0.00012862 | 0.00012862 | 0.00012862 |   0.0 |  0.00
Modify  | 4.207      | 4.207      | 4.207      |   0.0 | 94.82
Other   |            | 0.09058    |            |       |  2.04

Nlocal:        6.00000 ave           6 max           6 min
Histogram: 1 0 0 0 0 0 0 0 0 0
Nghost:        6.00000 ave           6 max           6 min
Histogram: 1 0 0 0 0 0 0 0 0 0
Neighs:         0.00000 ave           0 max           0 min
Histogram: 1 0 0 0 0 0 0 0 0 0

Total # of neighbors = 0
Ave neighs/atom = 0.0000000
Neighbor list builds = 4238
Dangerous builds = 0
unfix myat1
next a
jump SELF loop
variable xdes equal ${a}-25
variable xdes equal 5-25
variable xave equal xcm(topull,x)
fix mytth topull spring tether ${k} ${xdes} 0 0 0
fix mytth topull spring tether 15 ${xdes} 0 0 0
fix mytth topull spring tether 15 -20 0 0 0
run 200000 # equilibrate
Per MPI rank memory allocation (min/avg/max) = 4.588 | 4.588 | 4.588 Mbytes
Step Temp E_pair E_mol TotEng Press 
 4800000     178.4506            0            0    2.6596367    1.5197256 
 4900000    93.769123            0            0    1.3975397   0.79855903 
 5000000    147.04707            0            0    2.1915969     1.252286 
Loop time of 0.874902 on 1 procs for 200000 steps with 6 atoms

Performance: 39501.586 ns/day, 0.001 hours/ns, 228597.143 timesteps/s
100.0% CPU use with 1 MPI tasks x 1 OpenMP threads

MPI task timing breakdown:
Section |  min time  |  avg time  |  max time  |%varavg| %total
---------------------------------------------------------------
Pair    | 0.0073148  | 0.0073148  | 0.0073148  |   0.0 |  0.84
Neigh   | 0.0017915  | 0.0017915  | 0.0017915  |   0.0 |  0.20
Comm    | 0.016483   | 0.016483   | 0.016483   |   0.0 |  1.88
Output  | 5.6304e-05 | 5.6304e-05 | 5.6304e-05 |   0.0 |  0.01
Modify  | 0.83111    | 0.83111    | 0.83111    |   0.0 | 94.99
Other   |            | 0.01815    |            |       |  2.07

Nlocal:        6.00000 ave           6 max           6 min
Histogram: 1 0 0 0 0 0 0 0 0 0
Nghost:        10.0000 ave          10 max          10 min
Histogram: 1 0 0 0 0 0 0 0 0 0
Neighs:        1.00000 ave           1 max           1 min
Histogram: 1 0 0 0 0 0 0 0 0 0

Total # of neighbors = 1
Ave neighs/atom = 0.16666667
Neighbor list builds = 856
Dangerous builds = 0
fix myat1 all ave/time 10 10 100 v_xave v_xdes file position.${a}.dat
fix myat1 all ave/time 10 10 100 v_xave v_xdes file position.5.dat
run 1000000 # data aquisition
Per MPI rank memory allocation (min/avg/max) = 4.588 | 4.588 | 4.588 Mbytes
Step Temp E_pair E_mol TotEng Press 
 5000000    147.04707            0            0    2.1915969     1.252286 
 5100000    119.79665            0            0    1.7854553    1.0202153 
 5200000    261.01874            0            0    3.8902365    2.2228946 
 5300000    205.83545            0            0    3.0677819    1.7529412 
 5400000    152.23762            0            0    2.2689571    1.2964899 
 5500000    128.33775            0            0    1.9127522    1.0929532 
 5600000     136.3966            0            0    2.0328618    1.1615842 
 5700000    169.83749            0            0    2.5312664    1.4463744 
 5800000    148.83236            0            0    2.2182049      1.26749 
 5900000    209.33205            0            0    3.1198954     1.782719 
 6000000    94.234886            0            0    1.4044815   0.80252557 
Loop time of 4.42526 on 1 procs for 1000000 steps with 6 atoms

Performance: 39048.566 ns/day, 0.001 hours/ns, 225975.499 timesteps/s
99.7% CPU use with 1 MPI tasks x 1 OpenMP threads

MPI task timing breakdown:
Section |  min time  |  avg time  |  max time  |%varavg| %total
---------------------------------------------------------------
Pair    | 0.03733    | 0.03733    | 0.03733    |   0.0 |  0.84
Neigh   | 0.0089279  | 0.0089279  | 0.0089279  |   0.0 |  0.20
Comm    | 0.09224    | 0.09224    | 0.09224    |   0.0 |  2.08
Output  | 9.938e-05  | 9.938e-05  | 9.938e-05  |   0.0 |  0.00
Modify  | 4.1958     | 4.1958     | 4.1958     |   0.0 | 94.81
Other   |            | 0.09091    |            |       |  2.05

Nlocal:        6.00000 ave           6 max           6 min
Histogram: 1 0 0 0 0 0 0 0 0 0
Nghost:        13.0000 ave          13 max          13 min
Histogram: 1 0 0 0 0 0 0 0 0 0
Neighs:         0.00000 ave           0 max           0 min
Histogram: 1 0 0 0 0 0 0 0 0 0

Total # of neighbors = 0
Ave neighs/atom = 0.0000000
Neighbor list builds = 4233
Dangerous builds = 0
unfix myat1
next a
jump SELF loop
variable xdes equal ${a}-25
variable xdes equal 6-25
variable xave equal xcm(topull,x)
fix mytth topull spring tether ${k} ${xdes} 0 0 0
fix mytth topull spring tether 15 ${xdes} 0 0 0
fix mytth topull spring tether 15 -19 0 0 0
run 200000 # equilibrate
Per MPI rank memory allocation (min/avg/max) = 4.588 | 4.588 | 4.588 Mbytes
Step Temp E_pair E_mol TotEng Press 
 6000000    94.234886            0            0    1.4044815   0.80252557 
 6100000    144.91293            0            0    2.1597896    1.2341112 
 6200000    94.382863            0            0    1.4066869   0.80378578 
Loop time of 0.865394 on 1 procs for 200000 steps with 6 atoms

Performance: 39935.574 ns/day, 0.001 hours/ns, 231108.648 timesteps/s
100.0% CPU use with 1 MPI tasks x 1 OpenMP threads

MPI task timing breakdown:
Section |  min time  |  avg time  |  max time  |%varavg| %total
---------------------------------------------------------------
Pair    | 0.0071666  | 0.0071666  | 0.0071666  |   0.0 |  0.83
Neigh   | 0.0017348  | 0.0017348  | 0.0017348  |   0.0 |  0.20
Comm    | 0.018186   | 0.018186   | 0.018186   |   0.0 |  2.10
Output  | 1.2126e-05 | 1.2126e-05 | 1.2126e-05 |   0.0 |  0.00
Modify  | 0.82025    | 0.82025    | 0.82025    |   0.0 | 94.78
Other   |            | 0.01804    |            |       |  2.09

Nlocal:        6.00000 ave           6 max           6 min
Histogram: 1 0 0 0 0 0 0 0 0 0
Nghost:        11.0000 ave          11 max          11 min
Histogram: 1 0 0 0 0 0 0 0 0 0
Neighs:         0.00000 ave           0 max           0 min
Histogram: 1 0 0 0 0 0 0 0 0 0

Total # of neighbors = 0
Ave neighs/atom = 0.0000000
Neighbor list builds = 845
Dangerous builds = 0
fix myat1 all ave/time 10 10 100 v_xave v_xdes file position.${a}.dat
fix myat1 all ave/time 10 10 100 v_xave v_xdes file position.6.dat
run 1000000 # data aquisition
Per MPI rank memory allocation (min/avg/max) = 4.588 | 4.588 | 4.588 Mbytes
Step Temp E_pair E_mol TotEng Press 
 6200000    94.382863            0            0    1.4066869   0.80378578 
 6300000     145.2156            0            0    2.1643006    1.2366888 
 6400000    175.74828            0            0    2.6193611     1.496712 
 6500000    242.22687            0            0    3.6101614    2.0628587 
 6600000    131.98599            0            0    1.9671258    1.1240225 
 6700000    160.54743            0            0     2.392807    1.3672582 
 6800000    168.59685            0            0    2.5127759    1.4358089 
 6900000    210.50815            0            0    3.1374241     1.792735 
 7000000    186.10958            0            0    2.7737866    1.5849512 
 7100000     99.03477            0            0    1.4760192   0.84340247 
 7200000    162.79173            0            0    2.4262561    1.3863711 
Loop time of 4.41183 on 1 procs for 1000000 steps with 6 atoms

Performance: 39167.450 ns/day, 0.001 hours/ns, 226663.482 timesteps/s
99.8% CPU use with 1 MPI tasks x 1 OpenMP threads

MPI task timing breakdown:
Section |  min time  |  avg time  |  max time  |%varavg| %total
---------------------------------------------------------------
Pair    | 0.037883   | 0.037883   | 0.037883   |   0.0 |  0.86
Neigh   | 0.008899   | 0.008899   | 0.008899   |   0.0 |  0.20
Comm    | 0.087293   | 0.087293   | 0.087293   |   0.0 |  1.98
Output  | 8.1703e-05 | 8.1703e-05 | 8.1703e-05 |   0.0 |  0.00
Modify  | 4.1871     | 4.1871     | 4.1871     |   0.0 | 94.91
Other   |            | 0.09062    |            |       |  2.05

Nlocal:        6.00000 ave           6 max           6 min
Histogram: 1 0 0 0 0 0 0 0 0 0
Nghost:        6.00000 ave           6 max           6 min
Histogram: 1 0 0 0 0 0 0 0 0 0
Neighs:         0.00000 ave           0 max           0 min
Histogram: 1 0 0 0 0 0 0 0 0 0

Total # of neighbors = 0
Ave neighs/atom = 0.0000000
Neighbor list builds = 4197
Dangerous builds = 0
unfix myat1
next a
jump SELF loop
variable xdes equal ${a}-25
variable xdes equal 7-25
variable xave equal xcm(topull,x)
fix mytth topull spring tether ${k} ${xdes} 0 0 0
fix mytth topull spring tether 15 ${xdes} 0 0 0
fix mytth topull spring tether 15 -18 0 0 0
run 200000 # equilibrate
Per MPI rank memory allocation (min/avg/max) = 4.588 | 4.588 | 4.588 Mbytes
Step Temp E_pair E_mol TotEng Press 
 7200000    162.79173            0            0    2.4262561    1.3863711 
 7300000    64.022632            0            0   0.95419652   0.54523119 
 7400000    134.09247            0            0    1.9985209    1.1419618 
Loop time of 0.859579 on 1 procs for 200000 steps with 6 atoms

Performance: 40205.719 ns/day, 0.001 hours/ns, 232671.987 timesteps/s
100.0% CPU use with 1 MPI tasks x 1 OpenMP threads

MPI task timing breakdown:
Section |  min time  |  avg time  |  max time  |%varavg| %total
---------------------------------------------------------------
Pair    | 0.0070509  | 0.0070509  | 0.0070509  |   0.0 |  0.82
Neigh   | 0.0017164  | 0.0017164  | 0.0017164  |   0.0 |  0.20
Comm    | 0.016213   | 0.016213   | 0.016213   |   0.0 |  1.89
Output  | 2.4944e-05 | 2.4944e-05 | 2.4944e-05 |   0.0 |  0.00
Modify  | 0.81671    | 0.81671    | 0.81671    |   0.0 | 95.01
Other   |            | 0.01786    |            |       |  2.08

Nlocal:        6.00000 ave           6 max           6 min
Histogram: 1 0 0 0 0 0 0 0 0 0
Nghost:        4.00000 ave           4 max           4 min
Histogram: 1 0 0 0 0 0 0 0 0 0
Neighs:         0.00000 ave           0 max           0 min
Histogram: 1 0 0 0 0 0 0 0 0 0

Total # of neighbors = 0
Ave neighs/atom = 0.0000000
Neighbor list builds = 849
Dangerous builds = 0
fix myat1 all ave/time 10 10 100 v_xave v_xdes file position.${a}.dat
fix myat1 all ave/time 10 10 100 v_xave v_xdes file position.7.dat
run 1000000 # data aquisition
Per MPI rank memory allocation (min/avg/max) = 4.588 | 4.588 | 4.588 Mbytes
Step Temp E_pair E_mol TotEng Press 
 7400000    134.09247            0            0    1.9985209    1.1419618 
 7500000    168.00989            0            0    2.5040278    1.4308102 
 7600000    190.09032            0            0    2.8331157    1.6188521 
 7700000    163.00446            0            0    2.4294267    1.3881828 
 7800000    70.407096            0            0    1.0493509   0.59960273 
 7900000    145.03225            0            0    2.1615679    1.2351274 
 8000000    134.70708            0            0    2.0076811    1.1471959 
 8100000    63.656238            0            0   0.94873577    0.5421109 
 8200000    102.04791            0            0    1.5209272   0.86906308 
 8300000      100.559            0            0    1.4987363   0.85638312 
 8400000    97.107866            0            0    1.4473005   0.82699252 
Loop time of 4.44353 on 1 procs for 1000000 steps with 6 atoms

Performance: 38888.039 ns/day, 0.001 hours/ns, 225046.520 timesteps/s
99.5% CPU use with 1 MPI tasks x 1 OpenMP threads

MPI task timing breakdown:
Section |  min time  |  avg time  |  max time  |%varavg| %total
---------------------------------------------------------------
Pair    | 0.037312   | 0.037312   | 0.037312   |   0.0 |  0.84
Neigh   | 0.0087522  | 0.0087522  | 0.0087522  |   0.0 |  0.20
Comm    | 0.085732   | 0.085732   | 0.085732   |   0.0 |  1.93
Output  | 9.0739e-05 | 9.0739e-05 | 9.0739e-05 |   0.0 |  0.00
Modify  | 4.221      | 4.221      | 4.221      |   0.0 | 94.99
Other   |            | 0.09065    |            |       |  2.04

Nlocal:        6.00000 ave           6 max           6 min
Histogram: 1 0 0 0 0 0 0 0 0 0
Nghost:        17.0000 ave          17 max          17 min
Histogram: 1 0 0 0 0 0 0 0 0 0
Neighs:         0.00000 ave           0 max           0 min
Histogram: 1 0 0 0 0 0 0 0 0 0

Total # of neighbors = 0
Ave neighs/atom = 0.0000000
Neighbor list builds = 4206
Dangerous builds = 0
unfix myat1
next a
jump SELF loop
variable xdes equal ${a}-25
variable xdes equal 8-25
variable xave equal xcm(topull,x)
fix mytth topull spring tether ${k} ${xdes} 0 0 0
fix mytth topull spring tether 15 ${xdes} 0 0 0
fix mytth topull spring tether 15 -17 0 0 0
run 200000 # equilibrate
Per MPI rank memory allocation (min/avg/max) = 4.588 | 4.588 | 4.588 Mbytes
Step Temp E_pair E_mol TotEng Press 
 8400000    97.107866            0            0    1.4473005   0.82699252 
 8500000    133.16284            0            0    1.9846656    1.1340448 
 8600000    148.74382            0            0    2.2168853    1.2667359 
Loop time of 0.873214 on 1 procs for 200000 steps with 6 atoms

Performance: 39577.939 ns/day, 0.001 hours/ns, 229038.996 timesteps/s
100.0% CPU use with 1 MPI tasks x 1 OpenMP threads

MPI task timing breakdown:
Section |  min time  |  avg time  |  max time  |%varavg| %total
---------------------------------------------------------------
Pair    | 0.007327   | 0.007327   | 0.007327   |   0.0 |  0.84
Neigh   | 0.0017045  | 0.0017045  | 0.0017045  |   0.0 |  0.20
Comm    | 0.018872   | 0.018872   | 0.018872   |   0.0 |  2.16
Output  | 1.498e-05  | 1.498e-05  | 1.498e-05  |   0.0 |  0.00
Modify  | 0.82724    | 0.82724    | 0.82724    |   0.0 | 94.74
Other   |            | 0.01805    |            |       |  2.07

Nlocal:        6.00000 ave           6 max           6 min
Histogram: 1 0 0 0 0 0 0 0 0 0
Nghost:        4.00000 ave           4 max           4 min
Histogram: 1 0 0 0 0 0 0 0 0 0
Neighs:         0.00000 ave           0 max           0 min
Histogram: 1 0 0 0 0 0 0 0 0 0

Total # of neighbors = 0
Ave neighs/atom = 0.0000000
Neighbor list builds = 826
Dangerous builds = 0
fix myat1 all ave/time 10 10 100 v_xave v_xdes file position.${a}.dat
fix myat1 all ave/time 10 10 100 v_xave v_xdes file position.8.dat
run 1000000 # data aquisition
Per MPI rank memory allocation (min/avg/max) = 4.588 | 4.588 | 4.588 Mbytes
Step Temp E_pair E_mol TotEng Press 
 8600000    148.74382            0            0    2.2168853    1.2667359 
 8700000    158.78739            0            0    2.3665752    1.3522693 
 8800000    147.76172            0            0     2.202248    1.2583721 
 8900000    110.76882            0            0     1.650904   0.94333225 
 9000000    111.15489            0            0    1.6566581   0.94662017 
 9100000    175.13728            0            0    2.6102548    1.4915086 
 9200000     225.4666            0            0    3.3603656    1.9201245 
 9300000    70.511235            0            0     1.050903   0.60048961 
 9400000    162.77167            0            0    2.4259571    1.3862003 
 9500000    210.65292  0.029814923            0    3.1693966    2.1849874 
 9600000    208.00894            0            0    3.1001758    1.7714512 
Loop time of 4.44866 on 1 procs for 1000000 steps with 6 atoms

Performance: 38843.153 ns/day, 0.001 hours/ns, 224786.767 timesteps/s
99.5% CPU use with 1 MPI tasks x 1 OpenMP threads

MPI task timing breakdown:
Section |  min time  |  avg time  |  max time  |%varavg| %total
---------------------------------------------------------------
Pair    | 0.036826   | 0.036826   | 0.036826   |   0.0 |  0.83
Neigh   | 0.0086572  | 0.0086572  | 0.0086572  |   0.0 |  0.19
Comm    | 0.087207   | 0.087207   | 0.087207   |   0.0 |  1.96
Output  | 9.231e-05  | 9.231e-05  | 9.231e-05  |   0.0 |  0.00
Modify  | 4.2253     | 4.2253     | 4.2253     |   0.0 | 94.98
Other   |            | 0.09054    |            |       |  2.04

Nlocal:        6.00000 ave           6 max           6 min
Histogram: 1 0 0 0 0 0 0 0 0 0
Nghost:        4.00000 ave           4 max           4 min
Histogram: 1 0 0 0 0 0 0 0 0 0
Neighs:         0.00000 ave           0 max           0 min
Histogram: 1 0 0 0 0 0 0 0 0 0

Total # of neighbors = 0
Ave neighs/atom = 0.0000000
Neighbor list builds = 4163
Dangerous builds = 0
unfix myat1
next a
jump SELF loop
variable xdes equal ${a}-25
variable xdes equal 9-25
variable xave equal xcm(topull,x)
fix mytth topull spring tether ${k} ${xdes} 0 0 0
fix mytth topull spring tether 15 ${xdes} 0 0 0
fix mytth topull spring tether 15 -16 0 0 0
run 200000 # equilibrate
Per MPI rank memory allocation (min/avg/max) = 4.588 | 4.588 | 4.588 Mbytes
Step Temp E_pair E_mol TotEng Press 
 9600000    208.00894            0            0    3.1001758    1.7714512 
 9700000    135.62459            0            0    2.0213557    1.1550097 
 9800000    138.72822            0            0    2.0676123    1.1814408 
Loop time of 0.868307 on 1 procs for 200000 steps with 6 atoms

Performance: 39801.572 ns/day, 0.001 hours/ns, 230333.170 timesteps/s
100.0% CPU use with 1 MPI tasks x 1 OpenMP threads

MPI task timing breakdown:
Section |  min time  |  avg time  |  max time  |%varavg| %total
---------------------------------------------------------------
Pair    | 0.0078054  | 0.0078054  | 0.0078054  |   0.0 |  0.90
Neigh   | 0.0017378  | 0.0017378  | 0.0017378  |   0.0 |  0.20
Comm    | 0.015963   | 0.015963   | 0.015963   |   0.0 |  1.84
Output  | 1.5697e-05 | 1.5697e-05 | 1.5697e-05 |   0.0 |  0.00
Modify  | 0.8247     | 0.8247     | 0.8247     |   0.0 | 94.98
Other   |            | 0.01809    |            |       |  2.08

Nlocal:        6.00000 ave           6 max           6 min
Histogram: 1 0 0 0 0 0 0 0 0 0
Nghost:        7.00000 ave           7 max           7 min
Histogram: 1 0 0 0 0 0 0 0 0 0
Neighs:         0.00000 ave           0 max           0 min
Histogram: 1 0 0 0 0 0 0 0 0 0

Total # of neighbors = 0
Ave neighs/atom = 0.0000000
Neighbor list builds = 842
Dangerous builds = 0
fix myat1 all ave/time 10 10 100 v_xave v_xdes file position.${a}.dat
fix myat1 all ave/time 10 10 100 v_xave v_xdes file position.9.dat
run 1000000 # data aquisition
Per MPI rank memory allocation (min/avg/max) = 4.588 | 4.588 | 4.588 Mbytes
Step Temp E_pair E_mol TotEng Press 
 9800000    138.72822            0            0    2.0676123    1.1814408 
 9900000    172.61946            0            0    2.5727292    1.4700663 
10000000    109.93111            0            0    1.6384188   0.93619818 
10100000    247.01724            0            0    3.6815574    2.1036546 
10200000    218.83053            0            0    3.2614612    1.8636102 
10300000    155.02379            0            0    2.3104823    1.3202176 
10400000    138.65385            0            0    2.0665039    1.1808075 
10500000     259.8522            0            0    3.8728503    2.2129601 
10600000    175.63394            0            0     2.617657    1.4957383 
10700000    178.76423 0.00081154115            0    2.6651225    1.5728261 
10800000    263.57745            0            0    3.9283716    2.2446851 
Loop time of 4.44618 on 1 procs for 1000000 steps with 6 atoms

Performance: 38864.851 ns/day, 0.001 hours/ns, 224912.332 timesteps/s
99.4% CPU use with 1 MPI tasks x 1 OpenMP threads

MPI task timing breakdown:
Section |  min time  |  avg time  |  max time  |%varavg| %total
---------------------------------------------------------------
Pair    | 0.037345   | 0.037345   | 0.037345   |   0.0 |  0.84
Neigh   | 0.0089283  | 0.0089283  | 0.0089283  |   0.0 |  0.20
Comm    | 0.088641   | 0.088641   | 0.088641   |   0.0 |  1.99
Output  | 0.00011252 | 0.00011252 | 0.00011252 |   0.0 |  0.00
Modify  | 4.2201     | 4.2201     | 4.2201     |   0.0 | 94.92
Other   |            | 0.09102    |            |       |  2.05

Nlocal:        6.00000 ave           6 max           6 min
Histogram: 1 0 0 0 0 0 0 0 0 0
Nghost:        12.0000 ave          12 max          12 min
Histogram: 1 0 0 0 0 0 0 0 0 0
Neighs:         0.00000 ave           0 max           0 min
Histogram: 1 0 0 0 0 0 0 0 0 0

Total # of neighbors = 0
Ave neighs/atom = 0.0000000
Neighbor list builds = 4234
Dangerous builds = 0
unfix myat1
next a
jump SELF loop
variable xdes equal ${a}-25
variable xdes equal 10-25
variable xave equal xcm(topull,x)
fix mytth topull spring tether ${k} ${xdes} 0 0 0
fix mytth topull spring tether 15 ${xdes} 0 0 0
fix mytth topull spring tether 15 -15 0 0 0
run 200000 # equilibrate
Per MPI rank memory allocation (min/avg/max) = 4.588 | 4.588 | 4.588 Mbytes
Step Temp E_pair E_mol TotEng Press 
10800000    263.57745            0            0    3.9283716    2.2446851 
10900000    103.06435            0            0    1.5360763   0.87771929 
11000000    150.76384            0            0    2.2469919     1.283939 
Loop time of 0.866878 on 1 procs for 200000 steps with 6 atoms

Performance: 39867.203 ns/day, 0.001 hours/ns, 230712.981 timesteps/s
100.0% CPU use with 1 MPI tasks x 1 OpenMP threads

MPI task timing breakdown:
Section |  min time  |  avg time  |  max time  |%varavg| %total
---------------------------------------------------------------
Pair    | 0.007305   | 0.007305   | 0.007305   |   0.0 |  0.84
Neigh   | 0.0018163  | 0.0018163  | 0.0018163  |   0.0 |  0.21
Comm    | 0.0183     | 0.0183     | 0.0183     |   0.0 |  2.11
Output  | 3.7783e-05 | 3.7783e-05 | 3.7783e-05 |   0.0 |  0.00
Modify  | 0.82125    | 0.82125    | 0.82125    |   0.0 | 94.74
Other   |            | 0.01817    |            |       |  2.10

Nlocal:        6.00000 ave           6 max           6 min
Histogram: 1 0 0 0 0 0 0 0 0 0
Nghost:        8.00000 ave           8 max           8 min
Histogram: 1 0 0 0 0 0 0 0 0 0
Neighs:         0.00000 ave           0 max           0 min
Histogram: 1 0 0 0 0 0 0 0 0 0

Total # of neighbors = 0
Ave neighs/atom = 0.0000000
Neighbor list builds = 846
Dangerous builds = 0
fix myat1 all ave/time 10 10 100 v_xave v_xdes file position.${a}.dat
fix myat1 all ave/time 10 10 100 v_xave v_xdes file position.10.dat
run 1000000 # data aquisition
Per MPI rank memory allocation (min/avg/max) = 4.588 | 4.588 | 4.588 Mbytes
Step Temp E_pair E_mol TotEng Press 
11000000    150.76384            0            0    2.2469919     1.283939 
11100000    124.32164            0            0     1.852896    1.0587512 
11200000    103.08066            0            0    1.5363193   0.87785815 
11300000     89.27442            0            0    1.3305504   0.76028112 
11400000      133.246            0            0    1.9859051    1.1347531 
11500000    213.13223            0            0    3.1765334    1.8150822 
11600000    110.77951            0            0    1.6510635   0.94342337 
11700000    195.19242            0            0    2.9091577    1.6623028 
11800000    170.53092            0            0    2.5416014    1.4522798 
11900000    195.25688            0            0    2.9101183    1.6628517 
12000000    137.67157            0            0     2.051864    1.1724422 
Loop time of 4.4655 on 1 procs for 1000000 steps with 6 atoms

Performance: 38696.709 ns/day, 0.001 hours/ns, 223939.287 timesteps/s
99.6% CPU use with 1 MPI tasks x 1 OpenMP threads

MPI task timing breakdown:
Section |  min time  |  avg time  |  max time  |%varavg| %total
---------------------------------------------------------------
Pair    | 0.037248   | 0.037248   | 0.037248   |   0.0 |  0.83
Neigh   | 0.0088747  | 0.0088747  | 0.0088747  |   0.0 |  0.20
Comm    | 0.085719   | 0.085719   | 0.085719   |   0.0 |  1.92
Output  | 8.4641e-05 | 8.4641e-05 | 8.4641e-05 |   0.0 |  0.00
Modify  | 4.2432     | 4.2432     | 4.2432     |   0.0 | 95.02
Other   |            | 0.09037    |            |       |  2.02

Nlocal:        6.00000 ave           6 max           6 min
Histogram: 1 0 0 0 0 0 0 0 0 0
Nghost:        4.00000 ave           4 max           4 min
Histogram: 1 0 0 0 0 0 0 0 0 0
Neighs:         0.00000 ave           0 max           0 min
Histogram: 1 0 0 0 0 0 0 0 0 0

Total # of neighbors = 0
Ave neighs/atom = 0.0000000
Neighbor list builds = 4227
Dangerous builds = 0
unfix myat1
next a
jump SELF loop
variable xdes equal ${a}-25
variable xdes equal 11-25
variable xave equal xcm(topull,x)
fix mytth topull spring tether ${k} ${xdes} 0 0 0
fix mytth topull spring tether 15 ${xdes} 0 0 0
fix mytth topull spring tether 15 -14 0 0 0
run 200000 # equilibrate
Per MPI rank memory allocation (min/avg/max) = 4.588 | 4.588 | 4.588 Mbytes
Step Temp E_pair E_mol TotEng Press 
12000000    137.67157            0            0     2.051864    1.1724422 
12100000     191.9424            0            0    2.8607192    1.6346248 
12200000     144.6904            0            0     2.156473    1.2322161 
Loop time of 0.87353 on 1 procs for 200000 steps with 6 atoms

Performance: 39563.624 ns/day, 0.001 hours/ns, 228956.160 timesteps/s
100.0% CPU use with 1 MPI tasks x 1 OpenMP threads

MPI task timing breakdown:
Section |  min time  |  avg time  |  max time  |%varavg| %total
---------------------------------------------------------------
Pair    | 0.0072486  | 0.0072486  | 0.0072486  |   0.0 |  0.83
Neigh   | 0.0017515  | 0.0017515  | 0.0017515  |   0.0 |  0.20
Comm    | 0.018206   | 0.018206   | 0.018206   |   0.0 |  2.08
Output  | 1.7223e-05 | 1.7223e-05 | 1.7223e-05 |   0.0 |  0.00
Modify  | 0.82813    | 0.82813    | 0.82813    |   0.0 | 94.80
Other   |            | 0.01818    |            |       |  2.08

Nlocal:        6.00000 ave           6 max           6 min
Histogram: 1 0 0 0 0 0 0 0 0 0
Nghost:        12.0000 ave          12 max          12 min
Histogram: 1 0 0 0 0 0 0 0 0 0
Neighs:         0.00000 ave           0 max           0 min
Histogram: 1 0 0 0 0 0 0 0 0 0

Total # of neighbors = 0
Ave neighs/atom = 0.0000000
Neighbor list builds = 844
Dangerous builds = 0
fix myat1 all ave/time 10 10 100 v_xave v_xdes file position.${a}.dat
fix myat1 all ave/time 10 10 100 v_xave v_xdes file position.11.dat
run 1000000 # data aquisition
Per MPI rank memory allocation (min/avg/max) = 4.588 | 4.588 | 4.588 Mbytes
Step Temp E_pair E_mol TotEng Press 
12200000     144.6904            0            0     2.156473    1.2322161 
12300000    87.070427  0.020833121            0    1.3185351    1.0543486 
12400000    218.76279            0            0    3.2604516    1.8630333 
12500000    114.32542            0            0    1.7039119   0.97362113 
12600000    80.037724            0            0    1.1928863   0.68161933 
12700000    106.75257            0            0    1.5910457     0.909129 
12800000    131.86637            0            0     1.965343    1.1230038 
12900000    180.61063            0            0    2.6918299    1.5381209 
13000000    122.43856            0            0    1.8248304    1.0427144 
13100000    71.270622            0            0    1.0622209   0.60695672 
13200000    126.31583            0            0    1.8826175    1.0757341 
Loop time of 4.46313 on 1 procs for 1000000 steps with 6 atoms

Performance: 38717.181 ns/day, 0.001 hours/ns, 224057.759 timesteps/s
99.4% CPU use with 1 MPI tasks x 1 OpenMP threads

MPI task timing breakdown:
Section |  min time  |  avg time  |  max time  |%varavg| %total
---------------------------------------------------------------
Pair    | 0.036674   | 0.036674   | 0.036674   |   0.0 |  0.82
Neigh   | 0.0090063  | 0.0090063  | 0.0090063  |   0.0 |  0.20
Comm    | 0.08828    | 0.08828    | 0.08828    |   0.0 |  1.98
Output  | 0.00013298 | 0.00013298 | 0.00013298 |   0.0 |  0.00
Modify  | 4.2375     | 4.2375     | 4.2375     |   0.0 | 94.94
Other   |            | 0.09158    |            |       |  2.05

Nlocal:        6.00000 ave           6 max           6 min
Histogram: 1 0 0 0 0 0 0 0 0 0
Nghost:        4.00000 ave           4 max           4 min
Histogram: 1 0 0 0 0 0 0 0 0 0
Neighs:         0.00000 ave           0 max           0 min
Histogram: 1 0 0 0 0 0 0 0 0 0

Total # of neighbors = 0
Ave neighs/atom = 0.0000000
Neighbor list builds = 4233
Dangerous builds = 0
unfix myat1
next a
jump SELF loop
variable xdes equal ${a}-25
variable xdes equal 12-25
variable xave equal xcm(topull,x)
fix mytth topull spring tether ${k} ${xdes} 0 0 0
fix mytth topull spring tether 15 ${xdes} 0 0 0
fix mytth topull spring tether 15 -13 0 0 0
run 200000 # equilibrate
Per MPI rank memory allocation (min/avg/max) = 4.588 | 4.588 | 4.588 Mbytes
Step Temp E_pair E_mol TotEng Press 
13200000    126.31583            0            0    1.8826175    1.0757341 
13300000    99.856726            0            0    1.4882697   0.85040243 
13400000    137.35483            0            0    2.0471433    1.1697448 
Loop time of 0.878874 on 1 procs for 200000 steps with 6 atoms

Performance: 39323.053 ns/day, 0.001 hours/ns, 227563.967 timesteps/s
100.0% CPU use with 1 MPI tasks x 1 OpenMP threads

MPI task timing breakdown:
Section |  min time  |  avg time  |  max time  |%varavg| %total
---------------------------------------------------------------
Pair    | 0.0072775  | 0.0072775  | 0.0072775  |   0.0 |  0.83
Neigh   | 0.001818   | 0.001818   | 0.001818   |   0.0 |  0.21
Comm    | 0.018423   | 0.018423   | 0.018423   |   0.0 |  2.10
Output  | 2.2585e-05 | 2.2585e-05 | 2.2585e-05 |   0.0 |  0.00
Modify  | 0.83304    | 0.83304    | 0.83304    |   0.0 | 94.78
Other   |            | 0.0183     |            |       |  2.08

Nlocal:        6.00000 ave           6 max           6 min
Histogram: 1 0 0 0 0 0 0 0 0 0
Nghost:        9.00000 ave           9 max           9 min
Histogram: 1 0 0 0 0 0 0 0 0 0
Neighs:         0.00000 ave           0 max           0 min
Histogram: 1 0 0 0 0 0 0 0 0 0

Total # of neighbors = 0
Ave neighs/atom = 0.0000000
Neighbor list builds = 846
Dangerous builds = 0
fix myat1 all ave/time 10 10 100 v_xave v_xdes file position.${a}.dat
fix myat1 all ave/time 10 10 100 v_xave v_xdes file position.12.dat
run 1000000 # data aquisition
Per MPI rank memory allocation (min/avg/max) = 4.588 | 4.588 | 4.588 Mbytes
Step Temp E_pair E_mol TotEng Press 
13400000    137.35483            0            0    2.0471433    1.1697448 
13500000     156.3298            0            0    2.3299471    1.3313399 
13600000    60.766117            0            0   0.90566126   0.51749797 
13700000    223.69468            0            0    3.3339567    1.9050344 
13800000    68.207446            0            0    1.0165672   0.58087001 
13900000    163.83381            0            0    2.4417874    1.3952458 
14000000    169.09156            0            0    2.5201491    1.4400219 
14100000    213.31009            0            0    3.1791843    1.8165969 
14200000    165.54749            0            0     2.467328    1.4098398 
14300000    224.65666            0            0    3.3482941    1.9132268 
14400000    185.23214            0            0    2.7607091    1.5774787 
Loop time of 4.48282 on 1 procs for 1000000 steps with 6 atoms

Performance: 38547.168 ns/day, 0.001 hours/ns, 223073.889 timesteps/s
99.6% CPU use with 1 MPI tasks x 1 OpenMP threads

MPI task timing breakdown:
Section |  min time  |  avg time  |  max time  |%varavg| %total
---------------------------------------------------------------
Pair    | 0.03747    | 0.03747    | 0.03747    |   0.0 |  0.84
Neigh   | 0.009229   | 0.009229   | 0.009229   |   0.0 |  0.21
Comm    | 0.09212    | 0.09212    | 0.09212    |   0.0 |  2.05
Output  | 0.00014639 | 0.00014639 | 0.00014639 |   0.0 |  0.00
Modify  | 4.2523     | 4.2523     | 4.2523     |   0.0 | 94.86
Other   |            | 0.09157    |            |       |  2.04

Nlocal:        6.00000 ave           6 max           6 min
Histogram: 1 0 0 0 0 0 0 0 0 0
Nghost:        3.00000 ave           3 max           3 min
Histogram: 1 0 0 0 0 0 0 0 0 0
Neighs:         0.00000 ave           0 max           0 min
Histogram: 1 0 0 0 0 0 0 0 0 0

Total # of neighbors = 0
Ave neighs/atom = 0.0000000
Neighbor list builds = 4224
Dangerous builds = 0
unfix myat1
next a
jump SELF loop
variable xdes equal ${a}-25
variable xdes equal 13-25
variable xave equal xcm(topull,x)
fix mytth topull spring tether ${k} ${xdes} 0 0 0
fix mytth topull spring tether 15 ${xdes} 0 0 0
fix mytth topull spring tether 15 -12 0 0 0
run 200000 # equilibrate
Per MPI rank memory allocation (min/avg/max) = 4.588 | 4.588 | 4.588 Mbytes
Step Temp E_pair E_mol TotEng Press 
14400000    185.23214            0            0    2.7607091    1.5774787 
14500000    138.26186            0            0    2.0606616    1.1774692 
14600000    161.39499            0            0    2.4054391    1.3744762 
Loop time of 0.868711 on 1 procs for 200000 steps with 6 atoms

Performance: 39783.078 ns/day, 0.001 hours/ns, 230226.149 timesteps/s
100.0% CPU use with 1 MPI tasks x 1 OpenMP threads

MPI task timing breakdown:
Section |  min time  |  avg time  |  max time  |%varavg| %total
---------------------------------------------------------------
Pair    | 0.0072957  | 0.0072957  | 0.0072957  |   0.0 |  0.84
Neigh   | 0.0017168  | 0.0017168  | 0.0017168  |   0.0 |  0.20
Comm    | 0.015124   | 0.015124   | 0.015124   |   0.0 |  1.74
Output  | 2.533e-05  | 2.533e-05  | 2.533e-05  |   0.0 |  0.00
Modify  | 0.82645    | 0.82645    | 0.82645    |   0.0 | 95.14
Other   |            | 0.0181     |            |       |  2.08

Nlocal:        6.00000 ave           6 max           6 min
Histogram: 1 0 0 0 0 0 0 0 0 0
Nghost:        10.0000 ave          10 max          10 min
Histogram: 1 0 0 0 0 0 0 0 0 0
Neighs:         0.00000 ave           0 max           0 min
Histogram: 1 0 0 0 0 0 0 0 0 0

Total # of neighbors = 0
Ave neighs/atom = 0.0000000
Neighbor list builds = 833
Dangerous builds = 0
fix myat1 all ave/time 10 10 100 v_xave v_xdes file position.${a}.dat
fix myat1 all ave/time 10 10 100 v_xave v_xdes file position.13.dat
run 1000000 # data aquisition
Per MPI rank memory allocation (min/avg/max) = 4.588 | 4.588 | 4.588 Mbytes
Step Temp E_pair E_mol TotEng Press 
14600000    161.39499            0            0    2.4054391    1.3744762 
14700000    78.212709            0            0    1.1656861   0.66607709 
14800000    255.83944            0            0    3.8130439    2.1787865 
14900000    153.36767            0            0    2.2857995    1.3061137 
15000000    133.48641            0            0    1.9894881    1.1368004 
15100000    184.11132            0            0    2.7440044    1.5679336 
15200000    239.53109            0            0    3.5699834    2.0399009 
15300000    118.05636            0            0    1.7595179    1.0053946 
15400000    116.63255            0            0    1.7382974   0.99326912 
15500000    170.78172            0            0    2.5453393    1.4544157 
15600000     120.7073            0            0    1.7990277    1.0279707 
Loop time of 4.51457 on 1 procs for 1000000 steps with 6 atoms

Performance: 38276.039 ns/day, 0.001 hours/ns, 221504.858 timesteps/s
99.2% CPU use with 1 MPI tasks x 1 OpenMP threads

MPI task timing breakdown:
Section |  min time  |  avg time  |  max time  |%varavg| %total
---------------------------------------------------------------
Pair    | 0.037931   | 0.037931   | 0.037931   |   0.0 |  0.84
Neigh   | 0.008998   | 0.008998   | 0.008998   |   0.0 |  0.20
Comm    | 0.091527   | 0.091527   | 0.091527   |   0.0 |  2.03
Output  | 0.00014674 | 0.00014674 | 0.00014674 |   0.0 |  0.00
Modify  | 4.284      | 4.284      | 4.284      |   0.0 | 94.89
Other   |            | 0.09202    |            |       |  2.04

Nlocal:        6.00000 ave           6 max           6 min
Histogram: 1 0 0 0 0 0 0 0 0 0
Nghost:        13.0000 ave          13 max          13 min
Histogram: 1 0 0 0 0 0 0 0 0 0
Neighs:         0.00000 ave           0 max           0 min
Histogram: 1 0 0 0 0 0 0 0 0 0

Total # of neighbors = 0
Ave neighs/atom = 0.0000000
Neighbor list builds = 4212
Dangerous builds = 0
unfix myat1
next a
jump SELF loop
variable xdes equal ${a}-25
variable xdes equal 14-25
variable xave equal xcm(topull,x)
fix mytth topull spring tether ${k} ${xdes} 0 0 0
fix mytth topull spring tether 15 ${xdes} 0 0 0
fix mytth topull spring tether 15 -11 0 0 0
run 200000 # equilibrate
Per MPI rank memory allocation (min/avg/max) = 4.588 | 4.588 | 4.588 Mbytes
Step Temp E_pair E_mol TotEng Press 
15600000     120.7073            0            0    1.7990277    1.0279707 
15700000    200.67329            0            0    2.9908448     1.708979 
15800000    144.61281            0            0    2.1553166    1.2315554 
Loop time of 0.870928 on 1 procs for 200000 steps with 6 atoms

Performance: 39681.808 ns/day, 0.001 hours/ns, 229640.090 timesteps/s
100.0% CPU use with 1 MPI tasks x 1 OpenMP threads

MPI task timing breakdown:
Section |  min time  |  avg time  |  max time  |%varavg| %total
---------------------------------------------------------------
Pair    | 0.0071484  | 0.0071484  | 0.0071484  |   0.0 |  0.82
Neigh   | 0.0017183  | 0.0017183  | 0.0017183  |   0.0 |  0.20
Comm    | 0.017947   | 0.017947   | 0.017947   |   0.0 |  2.06
Output  | 1.9104e-05 | 1.9104e-05 | 1.9104e-05 |   0.0 |  0.00
Modify  | 0.82615    | 0.82615    | 0.82615    |   0.0 | 94.86
Other   |            | 0.01795    |            |       |  2.06

Nlocal:        6.00000 ave           6 max           6 min
Histogram: 1 0 0 0 0 0 0 0 0 0
Nghost:        5.00000 ave           5 max           5 min
Histogram: 1 0 0 0 0 0 0 0 0 0
Neighs:         0.00000 ave           0 max           0 min
Histogram: 1 0 0 0 0 0 0 0 0 0

Total # of neighbors = 0
Ave neighs/atom = 0.0000000
Neighbor list builds = 841
Dangerous builds = 0
fix myat1 all ave/time 10 10 100 v_xave v_xdes file position.${a}.dat
fix myat1 all ave/time 10 10 100 v_xave v_xdes file position.14.dat
run 1000000 # data aquisition
Per MPI rank memory allocation (min/avg/max) = 4.588 | 4.588 | 4.588 Mbytes
Step Temp E_pair E_mol TotEng Press 
15800000    144.61281            0            0    2.1553166    1.2315554 
15900000    214.48204            0            0    3.1966511    1.8265775 
16000000    110.84751            0            0    1.6520769   0.94400245 
16100000    160.87849            0            0    2.3977412    1.3700776 
16200000    143.37168            0            0    2.1368188    1.2209856 
16300000    111.31024            0            0    1.6589734   0.94794314 
16400000    223.76993            0            0    3.3350783    1.9056753 
16500000    116.44792            0            0    1.7355456   0.99169678 
16600000    108.34935            0            0    1.6148442   0.92272758 
16700000    164.57543            0            0    2.4528405    1.4015615 
16800000    130.02639            0            0    1.9379198    1.1073341 
Loop time of 4.41994 on 1 procs for 1000000 steps with 6 atoms

Performance: 39095.518 ns/day, 0.001 hours/ns, 226247.210 timesteps/s
99.3% CPU use with 1 MPI tasks x 1 OpenMP threads

MPI task timing breakdown:
Section |  min time  |  avg time  |  max time  |%varavg| %total
---------------------------------------------------------------
Pair    | 0.037367   | 0.037367   | 0.037367   |   0.0 |  0.85
Neigh   | 0.0088886  | 0.0088886  | 0.0088886  |   0.0 |  0.20
Comm    | 0.085662   | 0.085662   | 0.085662   |   0.0 |  1.94
Output  | 0.00011399 | 0.00011399 | 0.00011399 |   0.0 |  0.00
Modify  | 4.1976     | 4.1976     | 4.1976     |   0.0 | 94.97
Other   |            | 0.09035    |            |       |  2.04

Nlocal:        6.00000 ave           6 max           6 min
Histogram: 1 0 0 0 0 0 0 0 0 0
Nghost:        8.00000 ave           8 max           8 min
Histogram: 1 0 0 0 0 0 0 0 0 0
Neighs:         0.00000 ave           0 max           0 min
Histogram: 1 0 0 0 0 0 0 0 0 0

Total # of neighbors = 0
Ave neighs/atom = 0.0000000
Neighbor list builds = 4236
Dangerous builds = 0
unfix myat1
next a
jump SELF loop
variable xdes equal ${a}-25
variable xdes equal 15-25
variable xave equal xcm(topull,x)
fix mytth topull spring tether ${k} ${xdes} 0 0 0
fix mytth topull spring tether 15 ${xdes} 0 0 0
fix mytth topull spring tether 15 -10 0 0 0
run 200000 # equilibrate
Per MPI rank memory allocation (min/avg/max) = 4.588 | 4.588 | 4.588 Mbytes
Step Temp E_pair E_mol TotEng Press 
16800000    130.02639            0            0    1.9379198    1.1073341 
16900000     108.7461            0            0    1.6207573   0.92610635 
17000000    123.76519            0            0    1.8446027    1.0540123 
Loop time of 0.878392 on 1 procs for 200000 steps with 6 atoms

Performance: 39344.636 ns/day, 0.001 hours/ns, 227688.868 timesteps/s
100.0% CPU use with 1 MPI tasks x 1 OpenMP threads

MPI task timing breakdown:
Section |  min time  |  avg time  |  max time  |%varavg| %total
---------------------------------------------------------------
Pair    | 0.0077212  | 0.0077212  | 0.0077212  |   0.0 |  0.88
Neigh   | 0.0017955  | 0.0017955  | 0.0017955  |   0.0 |  0.20
Comm    | 0.019014   | 0.019014   | 0.019014   |   0.0 |  2.16
Output  | 5.9555e-05 | 5.9555e-05 | 5.9555e-05 |   0.0 |  0.01
Modify  | 0.83163    | 0.83163    | 0.83163    |   0.0 | 94.68
Other   |            | 0.01818    |            |       |  2.07

Nlocal:        6.00000 ave           6 max           6 min
Histogram: 1 0 0 0 0 0 0 0 0 0
Nghost:        10.0000 ave          10 max          10 min
Histogram: 1 0 0 0 0 0 0 0 0 0
Neighs:         0.00000 ave           0 max           0 min
Histogram: 1 0 0 0 0 0 0 0 0 0

Total # of neighbors = 0
Ave neighs/atom = 0.0000000
Neighbor list builds = 853
Dangerous builds = 0
fix myat1 all ave/time 10 10 100 v_xave v_xdes file position.${a}.dat
fix myat1 all ave/time 10 10 100 v_xave v_xdes file position.15.dat
run 1000000 # data aquisition
Per MPI rank memory allocation (min/avg/max) = 4.588 | 4.588 | 4.588 Mbytes
Step Temp E_pair E_mol TotEng Press 
17000000    123.76519            0            0    1.8446027    1.0540123 
17100000    105.45496            0            0     1.571706   0.89807822 
17200000    156.00654            0            0    2.3251294     1.328587 
17300000      119.759            0            0    1.7848942    1.0198947 
17400000    131.00369            0            0    1.9524856     1.115657 
17500000    117.61853            0            0    1.7529925     1.001666 
17600000    147.88915            0            0    2.2041474    1.2594574 
17700000    101.22948            0            0    1.5087292   0.86209309 
17800000    293.68058            0            0    4.3770301    2.5010501 
17900000    146.56152 0.0032315776            0    2.1875918    1.3543103 
18000000    170.74989            0            0    2.5448649    1.4541446 
Loop time of 4.47891 on 1 procs for 1000000 steps with 6 atoms

Performance: 38580.795 ns/day, 0.001 hours/ns, 223268.490 timesteps/s
99.7% CPU use with 1 MPI tasks x 1 OpenMP threads

MPI task timing breakdown:
Section |  min time  |  avg time  |  max time  |%varavg| %total
---------------------------------------------------------------
Pair    | 0.036909   | 0.036909   | 0.036909   |   0.0 |  0.82
Neigh   | 0.0090752  | 0.0090752  | 0.0090752  |   0.0 |  0.20
Comm    | 0.088658   | 0.088658   | 0.088658   |   0.0 |  1.98
Output  | 0.00014635 | 0.00014635 | 0.00014635 |   0.0 |  0.00
Modify  | 4.2521     | 4.2521     | 4.2521     |   0.0 | 94.94
Other   |            | 0.09203    |            |       |  2.05

Nlocal:        6.00000 ave           6 max           6 min
Histogram: 1 0 0 0 0 0 0 0 0 0
Nghost:        2.00000 ave           2 max           2 min
Histogram: 1 0 0 0 0 0 0 0 0 0
Neighs:        1.00000 ave           1 max           1 min
Histogram: 1 0 0 0 0 0 0 0 0 0

Total # of neighbors = 1
Ave neighs/atom = 0.16666667
Neighbor list builds = 4257
Dangerous builds = 0
unfix myat1
next a
jump SELF loop
variable xdes equal ${a}-25
variable xdes equal 16-25
variable xave equal xcm(topull,x)
fix mytth topull spring tether ${k} ${xdes} 0 0 0
fix mytth topull spring tether 15 ${xdes} 0 0 0
fix mytth topull spring tether 15 -9 0 0 0
run 200000 # equilibrate
Per MPI rank memory allocation (min/avg/max) = 4.588 | 4.588 | 4.588 Mbytes
Step Temp E_pair E_mol TotEng Press 
18000000    170.74989            0            0    2.5448649    1.4541446 
18100000    187.60549            0            0    2.7960816    1.5976907 
18200000    70.729741            0            0    1.0541596   0.60235045 
Loop time of 0.862616 on 1 procs for 200000 steps with 6 atoms

Performance: 40064.180 ns/day, 0.001 hours/ns, 231852.896 timesteps/s
100.0% CPU use with 1 MPI tasks x 1 OpenMP threads

MPI task timing breakdown:
Section |  min time  |  avg time  |  max time  |%varavg| %total
---------------------------------------------------------------
Pair    | 0.0073345  | 0.0073345  | 0.0073345  |   0.0 |  0.85
Neigh   | 0.001709   | 0.001709   | 0.001709   |   0.0 |  0.20
Comm    | 0.015915   | 0.015915   | 0.015915   |   0.0 |  1.84
Output  | 1.9129e-05 | 1.9129e-05 | 1.9129e-05 |   0.0 |  0.00
Modify  | 0.81972    | 0.81972    | 0.81972    |   0.0 | 95.03
Other   |            | 0.01792    |            |       |  2.08

Nlocal:        6.00000 ave           6 max           6 min
Histogram: 1 0 0 0 0 0 0 0 0 0
Nghost:        12.0000 ave          12 max          12 min
Histogram: 1 0 0 0 0 0 0 0 0 0
Neighs:         0.00000 ave           0 max           0 min
Histogram: 1 0 0 0 0 0 0 0 0 0

Total # of neighbors = 0
Ave neighs/atom = 0.0000000
Neighbor list builds = 844
Dangerous builds = 0
fix myat1 all ave/time 10 10 100 v_xave v_xdes file position.${a}.dat
fix myat1 all ave/time 10 10 100 v_xave v_xdes file position.16.dat
run 1000000 # data aquisition
Per MPI rank memory allocation (min/avg/max) = 4.588 | 4.588 | 4.588 Mbytes
Step Temp E_pair E_mol TotEng Press 
18200000    70.729741            0            0    1.0541596   0.60235045 
18300000    176.13889            0            0    2.6251829    1.5000386 
18400000    149.15597            0            0     2.223028    1.2702459 
18500000    129.84288            0            0    1.9351848    1.1057713 
18600000    309.62093            0            0    4.6146059    2.6368018 
18700000    207.86471            0            0    3.0980261    1.7702228 
18800000    242.19495            0            0    3.6096856    2.0625869 
18900000    128.08749            0            0    1.9090224     1.090822 
19000000    188.94759            0            0    2.8160843    1.6091203 
19100000    162.85466            0            0     2.427194     1.386907 
19200000    76.751912            0            0    1.1439144   0.65363662 
Loop time of 4.52578 on 1 procs for 1000000 steps with 6 atoms

Performance: 38181.244 ns/day, 0.001 hours/ns, 220956.275 timesteps/s
99.4% CPU use with 1 MPI tasks x 1 OpenMP threads

MPI task timing breakdown:
Section |  min time  |  avg time  |  max time  |%varavg| %total
---------------------------------------------------------------
Pair    | 0.037164   | 0.037164   | 0.037164   |   0.0 |  0.82
Neigh   | 0.0091707  | 0.0091707  | 0.0091707  |   0.0 |  0.20
Comm    | 0.091949   | 0.091949   | 0.091949   |   0.0 |  2.03
Output  | 0.00020015 | 0.00020015 | 0.00020015 |   0.0 |  0.00
Modify  | 4.2957     | 4.2957     | 4.2957     |   0.0 | 94.92
Other   |            | 0.09162    |            |       |  2.02

Nlocal:        6.00000 ave           6 max           6 min
Histogram: 1 0 0 0 0 0 0 0 0 0
Nghost:        9.00000 ave           9 max           9 min
Histogram: 1 0 0 0 0 0 0 0 0 0
Neighs:         0.00000 ave           0 max           0 min
Histogram: 1 0 0 0 0 0 0 0 0 0

Total # of neighbors = 0
Ave neighs/atom = 0.0000000
Neighbor list builds = 4233
Dangerous builds = 0
unfix myat1
next a
jump SELF loop
variable xdes equal ${a}-25
variable xdes equal 17-25
variable xave equal xcm(topull,x)
fix mytth topull spring tether ${k} ${xdes} 0 0 0
fix mytth topull spring tether 15 ${xdes} 0 0 0
fix mytth topull spring tether 15 -8 0 0 0
run 200000 # equilibrate
Per MPI rank memory allocation (min/avg/max) = 4.588 | 4.588 | 4.588 Mbytes
Step Temp E_pair E_mol TotEng Press 
19200000    76.751912            0            0    1.1439144   0.65363662 
19300000    146.82297            0            0     2.188257    1.2503776 
19400000    51.248528            0            0   0.76381063   0.43644404 
Loop time of 0.875875 on 1 procs for 200000 steps with 6 atoms

Performance: 39457.699 ns/day, 0.001 hours/ns, 228343.167 timesteps/s
100.0% CPU use with 1 MPI tasks x 1 OpenMP threads

MPI task timing breakdown:
Section |  min time  |  avg time  |  max time  |%varavg| %total
---------------------------------------------------------------
Pair    | 0.0069216  | 0.0069216  | 0.0069216  |   0.0 |  0.79
Neigh   | 0.0017522  | 0.0017522  | 0.0017522  |   0.0 |  0.20
Comm    | 0.017854   | 0.017854   | 0.017854   |   0.0 |  2.04
Output  | 2.0677e-05 | 2.0677e-05 | 2.0677e-05 |   0.0 |  0.00
Modify  | 0.8312     | 0.8312     | 0.8312     |   0.0 | 94.90
Other   |            | 0.01813    |            |       |  2.07

Nlocal:        6.00000 ave           6 max           6 min
Histogram: 1 0 0 0 0 0 0 0 0 0
Nghost:        8.00000 ave           8 max           8 min
Histogram: 1 0 0 0 0 0 0 0 0 0
Neighs:         0.00000 ave           0 max           0 min
Histogram: 1 0 0 0 0 0 0 0 0 0

Total # of neighbors = 0
Ave neighs/atom = 0.0000000
Neighbor list builds = 858
Dangerous builds = 0
fix myat1 all ave/time 10 10 100 v_xave v_xdes file position.${a}.dat
fix myat1 all ave/time 10 10 100 v_xave v_xdes file position.17.dat
run 1000000 # data aquisition
Per MPI rank memory allocation (min/avg/max) = 4.588 | 4.588 | 4.588 Mbytes
Step Temp E_pair E_mol TotEng Press 
19400000    51.248528            0            0   0.76381063   0.43644404 
19500000    100.35168            0            0    1.4956464   0.85461754 
19600000    183.67788            0            0    2.7375444    1.5642423 
19700000    154.84455            0            0     2.307811    1.3186912 
19800000    133.35198            0            0    1.9874846    1.1356556 
19900000    152.64311            0            0    2.2750006    1.2999432 
20000000    132.21664            0            0    1.9705635    1.1259868 
20100000     112.5255 0.0050948496            0    1.6821805    1.0951444 
20200000    141.43042            0            0    2.1078861    1.2044534 
20300000    211.07695            0            0    3.1459015     1.797579 
20400000    197.33691            0            0    2.9411192    1.6805657 
Loop time of 4.48295 on 1 procs for 1000000 steps with 6 atoms

Performance: 38546.054 ns/day, 0.001 hours/ns, 223067.441 timesteps/s
99.6% CPU use with 1 MPI tasks x 1 OpenMP threads

MPI task timing breakdown:
Section |  min time  |  avg time  |  max time  |%varavg| %total
---------------------------------------------------------------
Pair    | 0.036876   | 0.036876   | 0.036876   |   0.0 |  0.82
Neigh   | 0.0089054  | 0.0089054  | 0.0089054  |   0.0 |  0.20
Comm    | 0.086132   | 0.086132   | 0.086132   |   0.0 |  1.92
Output  | 0.00012981 | 0.00012981 | 0.00012981 |   0.0 |  0.00
Modify  | 4.2595     | 4.2595     | 4.2595     |   0.0 | 95.02
Other   |            | 0.09138    |            |       |  2.04

Nlocal:        6.00000 ave           6 max           6 min
Histogram: 1 0 0 0 0 0 0 0 0 0
Nghost:        11.0000 ave          11 max          11 min
Histogram: 1 0 0 0 0 0 0 0 0 0
Neighs:        1.00000 ave           1 max           1 min
Histogram: 1 0 0 0 0 0 0 0 0 0

Total # of neighbors = 1
Ave neighs/atom = 0.16666667
Neighbor list builds = 4225
Dangerous builds = 0
unfix myat1
next a
jump SELF loop
variable xdes equal ${a}-25
variable xdes equal 18-25
variable xave equal xcm(topull,x)
fix mytth topull spring tether ${k} ${xdes} 0 0 0
fix mytth topull spring tether 15 ${xdes} 0 0 0
fix mytth topull spring tether 15 -7 0 0 0
run 200000 # equilibrate
Per MPI rank memory allocation (min/avg/max) = 4.588 | 4.588 | 4.588 Mbytes
Step Temp E_pair E_mol TotEng Press 
20400000    197.33691            0            0    2.9411192    1.6805657 
20500000     106.3473            0            0    1.5850055   0.90567764 
20600000    163.84162            0            0    2.4419037    1.3953122 
Loop time of 0.878365 on 1 procs for 200000 steps with 6 atoms

Performance: 39345.836 ns/day, 0.001 hours/ns, 227695.810 timesteps/s
100.0% CPU use with 1 MPI tasks x 1 OpenMP threads

MPI task timing breakdown:
Section |  min time  |  avg time  |  max time  |%varavg| %total
---------------------------------------------------------------
Pair    | 0.0072126  | 0.0072126  | 0.0072126  |   0.0 |  0.82
Neigh   | 0.0017735  | 0.0017735  | 0.0017735  |   0.0 |  0.20
Comm    | 0.018187   | 0.018187   | 0.018187   |   0.0 |  2.07
Output  | 2.5887e-05 | 2.5887e-05 | 2.5887e-05 |   0.0 |  0.00
Modify  | 0.83295    | 0.83295    | 0.83295    |   0.0 | 94.83
Other   |            | 0.01822    |            |       |  2.07

Nlocal:        6.00000 ave           6 max           6 min
Histogram: 1 0 0 0 0 0 0 0 0 0
Nghost:        7.00000 ave           7 max           7 min
Histogram: 1 0 0 0 0 0 0 0 0 0
Neighs:         0.00000 ave           0 max           0 min
Histogram: 1 0 0 0 0 0 0 0 0 0

Total # of neighbors = 0
Ave neighs/atom = 0.0000000
Neighbor list builds = 847
Dangerous builds = 0
fix myat1 all ave/time 10 10 100 v_xave v_xdes file position.${a}.dat
fix myat1 all ave/time 10 10 100 v_xave v_xdes file position.18.dat
run 1000000 # data aquisition
Per MPI rank memory allocation (min/avg/max) = 4.588 | 4.588 | 4.588 Mbytes
Step Temp E_pair E_mol TotEng Press 
20600000    163.84162            0            0    2.4419037    1.3953122 
20700000    259.89877            0            0    3.8735443    2.2133566 
20800000    266.92462            0            0     3.978258    2.2731904 
20900000    176.09261            0            0    2.6244931    1.4996444 
21000000    109.70297            0            0    1.6350185   0.93425524 
21100000    206.39348            0            0    3.0760988    1.7576935 
21200000    162.27071   0.16152535            0    2.5800161    2.6079177 
21300000    117.25386            0            0    1.7475574   0.99856036 
21400000    257.88857            0            0    3.8435842    2.1962373 
21500000    118.08223            0            0    1.7599034    1.0056149 
21600000        153.4            0            0    2.2862813     1.306389 
Loop time of 4.50095 on 1 procs for 1000000 steps with 6 atoms

Performance: 38391.934 ns/day, 0.001 hours/ns, 222175.544 timesteps/s
99.6% CPU use with 1 MPI tasks x 1 OpenMP threads

MPI task timing breakdown:
Section |  min time  |  avg time  |  max time  |%varavg| %total
---------------------------------------------------------------
Pair    | 0.037608   | 0.037608   | 0.037608   |   0.0 |  0.84
Neigh   | 0.009058   | 0.009058   | 0.009058   |   0.0 |  0.20
Comm    | 0.093107   | 0.093107   | 0.093107   |   0.0 |  2.07
Output  | 0.0001027  | 0.0001027  | 0.0001027  |   0.0 |  0.00
Modify  | 4.27       | 4.27       | 4.27       |   0.0 | 94.87
Other   |            | 0.09106    |            |       |  2.02

Nlocal:        6.00000 ave           6 max           6 min
Histogram: 1 0 0 0 0 0 0 0 0 0
Nghost:        7.00000 ave           7 max           7 min
Histogram: 1 0 0 0 0 0 0 0 0 0
Neighs:        1.00000 ave           1 max           1 min
Histogram: 1 0 0 0 0 0 0 0 0 0

Total # of neighbors = 1
Ave neighs/atom = 0.16666667
Neighbor list builds = 4254
Dangerous builds = 0
unfix myat1
next a
jump SELF loop
variable xdes equal ${a}-25
variable xdes equal 19-25
variable xave equal xcm(topull,x)
fix mytth topull spring tether ${k} ${xdes} 0 0 0
fix mytth topull spring tether 15 ${xdes} 0 0 0
fix mytth topull spring tether 15 -6 0 0 0
run 200000 # equilibrate
Per MPI rank memory allocation (min/avg/max) = 4.588 | 4.588 | 4.588 Mbytes
Step Temp E_pair E_mol TotEng Press 
21600000        153.4            0            0    2.2862813     1.306389 
21700000    104.84122            0            0    1.5625588   0.89285153 
21800000    142.79781            0            0    2.1282658    1.2160984 
Loop time of 0.869947 on 1 procs for 200000 steps with 6 atoms

Performance: 39726.552 ns/day, 0.001 hours/ns, 229899.028 timesteps/s
100.0% CPU use with 1 MPI tasks x 1 OpenMP threads

MPI task timing breakdown:
Section |  min time  |  avg time  |  max time  |%varavg| %total
---------------------------------------------------------------
Pair    | 0.0072296  | 0.0072296  | 0.0072296  |   0.0 |  0.83
Neigh   | 0.0017735  | 0.0017735  | 0.0017735  |   0.0 |  0.20
Comm    | 0.018453   | 0.018453   | 0.018453   |   0.0 |  2.12
Output  | 1.4794e-05 | 1.4794e-05 | 1.4794e-05 |   0.0 |  0.00
Modify  | 0.82453    | 0.82453    | 0.82453    |   0.0 | 94.78
Other   |            | 0.01795    |            |       |  2.06

Nlocal:        6.00000 ave           6 max           6 min
Histogram: 1 0 0 0 0 0 0 0 0 0
Nghost:        3.00000 ave           3 max           3 min
Histogram: 1 0 0 0 0 0 0 0 0 0
Neighs:         0.00000 ave           0 max           0 min
Histogram: 1 0 0 0 0 0 0 0 0 0

Total # of neighbors = 0
Ave neighs/atom = 0.0000000
Neighbor list builds = 861
Dangerous builds = 0
fix myat1 all ave/time 10 10 100 v_xave v_xdes file position.${a}.dat
fix myat1 all ave/time 10 10 100 v_xave v_xdes file position.19.dat
run 1000000 # data aquisition
Per MPI rank memory allocation (min/avg/max) = 4.588 | 4.588 | 4.588 Mbytes
Step Temp E_pair E_mol TotEng Press 
21800000    142.79781            0            0    2.1282658    1.2160984 
21900000     79.48434            0            0    1.1846386   0.67690659 
22000000    171.74972            0            0    2.5597665    1.4626594 
22100000    111.98825            0            0    1.6690785   0.95371722 
22200000    213.63345            0            0    3.1840037    1.8193507 
22300000    92.642293            0            0    1.3807454   0.78896269 
22400000    93.058051            0            0    1.3869419   0.79250338 
22500000    83.993463            0            0    1.2518428    0.7153073 
22600000    247.32113            0            0    3.6860866    2.1062426 
22700000    132.83226            0            0    1.9797387    1.1312295 
22800000    144.90368            0            0    2.1596517    1.2340325 
Loop time of 4.44457 on 1 procs for 1000000 steps with 6 atoms

Performance: 38878.870 ns/day, 0.001 hours/ns, 224993.462 timesteps/s
99.5% CPU use with 1 MPI tasks x 1 OpenMP threads

MPI task timing breakdown:
Section |  min time  |  avg time  |  max time  |%varavg| %total
---------------------------------------------------------------
Pair    | 0.036576   | 0.036576   | 0.036576   |   0.0 |  0.82
Neigh   | 0.0087789  | 0.0087789  | 0.0087789  |   0.0 |  0.20
Comm    | 0.08654    | 0.08654    | 0.08654    |   0.0 |  1.95
[...]
Histogram: 1 0 0 0 0 0 0 0 0 0
Nghost:        9.00000 ave           9 max           9 min
Histogram: 1 0 0 0 0 0 0 0 0 0
Neighs:        1.00000 ave           1 max           1 min
Histogram: 1 0 0 0 0 0 0 0 0 0

Total # of neighbors = 1
Ave neighs/atom = 0.16666667
Neighbor list builds = 4224
Dangerous builds = 0
unfix myat1
next a
jump SELF loop
variable xdes equal ${a}-25
variable xdes equal 46-25
variable xave equal xcm(topull,x)
fix mytth topull spring tether ${k} ${xdes} 0 0 0
fix mytth topull spring tether 15 ${xdes} 0 0 0
fix mytth topull spring tether 15 21 0 0 0
run 200000 # equilibrate
Per MPI rank memory allocation (min/avg/max) = 4.588 | 4.588 | 4.588 Mbytes
Step Temp E_pair E_mol TotEng Press 
54000000    148.37292            0            0    2.2113574    1.2635773 
54100000    40.525678            0            0   0.60399673   0.34512582 
54200000    183.63725            0            0    2.7369388    1.5638963 
Loop time of 0.856892 on 1 procs for 200000 steps with 6 atoms

Performance: 40331.795 ns/day, 0.001 hours/ns, 233401.593 timesteps/s
100.0% CPU use with 1 MPI tasks x 1 OpenMP threads

MPI task timing breakdown:
Section |  min time  |  avg time  |  max time  |%varavg| %total
---------------------------------------------------------------
Pair    | 0.0075287  | 0.0075287  | 0.0075287  |   0.0 |  0.88
Neigh   | 0.001778   | 0.001778   | 0.001778   |   0.0 |  0.21
Comm    | 0.018099   | 0.018099   | 0.018099   |   0.0 |  2.11
Output  | 2.1255e-05 | 2.1255e-05 | 2.1255e-05 |   0.0 |  0.00
Modify  | 0.8118     | 0.8118     | 0.8118     |   0.0 | 94.74
Other   |            | 0.01766    |            |       |  2.06

Nlocal:        6.00000 ave           6 max           6 min
Histogram: 1 0 0 0 0 0 0 0 0 0
Nghost:        10.0000 ave          10 max          10 min
Histogram: 1 0 0 0 0 0 0 0 0 0
Neighs:        1.00000 ave           1 max           1 min
Histogram: 1 0 0 0 0 0 0 0 0 0

Total # of neighbors = 1
Ave neighs/atom = 0.16666667
Neighbor list builds = 866
Dangerous builds = 0
fix myat1 all ave/time 10 10 100 v_xave v_xdes file position.${a}.dat
fix myat1 all ave/time 10 10 100 v_xave v_xdes file position.46.dat
run 1000000 # data aquisition
Per MPI rank memory allocation (min/avg/max) = 4.588 | 4.588 | 4.588 Mbytes
Step Temp E_pair E_mol TotEng Press 
54200000    183.63725            0            0    2.7369388    1.5638963 
54300000    150.04524            0            0    2.2362818    1.2778192 
54400000    130.33984            0            0    1.9425915    1.1100035 
54500000    112.99462            0            0    1.6840774   0.96228768 
54600000    225.23098            0            0    3.3568538    1.9181179 
54700000     163.0939            0            0    2.4307597    1.3889445 
54800000    139.86962            0            0    2.0846239    1.1911613 
54900000    176.11542            0            0    2.6248331    1.4998387 
55000000    177.12693            0            0    2.6399086    1.5084529 
55100000    168.22357            0            0    2.5072126      1.43263 
55200000     289.4086            0            0    4.3133604     2.464669 
Loop time of 4.32877 on 1 procs for 1000000 steps with 6 atoms

Performance: 39918.939 ns/day, 0.001 hours/ns, 231012.380 timesteps/s
99.3% CPU use with 1 MPI tasks x 1 OpenMP threads

MPI task timing breakdown:
Section |  min time  |  avg time  |  max time  |%varavg| %total
---------------------------------------------------------------
Pair    | 0.037121   | 0.037121   | 0.037121   |   0.0 |  0.86
Neigh   | 0.0093415  | 0.0093415  | 0.0093415  |   0.0 |  0.22
Comm    | 0.089294   | 0.089294   | 0.089294   |   0.0 |  2.06
Output  | 0.00014284 | 0.00014284 | 0.00014284 |   0.0 |  0.00
Modify  | 4.1043     | 4.1043     | 4.1043     |   0.0 | 94.81
Other   |            | 0.08861    |            |       |  2.05

Nlocal:        6.00000 ave           6 max           6 min
Histogram: 1 0 0 0 0 0 0 0 0 0
Nghost:        8.00000 ave           8 max           8 min
Histogram: 1 0 0 0 0 0 0 0 0 0
Neighs:         0.00000 ave           0 max           0 min
Histogram: 1 0 0 0 0 0 0 0 0 0

Total # of neighbors = 0
Ave neighs/atom = 0.0000000
Neighbor list builds = 4273
Dangerous builds = 0
unfix myat1
next a
jump SELF loop
variable xdes equal ${a}-25
variable xdes equal 47-25
variable xave equal xcm(topull,x)
fix mytth topull spring tether ${k} ${xdes} 0 0 0
fix mytth topull spring tether 15 ${xdes} 0 0 0
fix mytth topull spring tether 15 22 0 0 0
run 200000 # equilibrate
Per MPI rank memory allocation (min/avg/max) = 4.588 | 4.588 | 4.588 Mbytes
Step Temp E_pair E_mol TotEng Press 
55200000     289.4086            0            0    4.3133604     2.464669 
55300000    166.55974            0            0    2.4824148    1.4184604 
55400000    78.604122            0            0    1.1715198   0.66941046 
Loop time of 0.847151 on 1 procs for 200000 steps with 6 atoms

Performance: 40795.568 ns/day, 0.001 hours/ns, 236085.462 timesteps/s
100.0% CPU use with 1 MPI tasks x 1 OpenMP threads

MPI task timing breakdown:
Section |  min time  |  avg time  |  max time  |%varavg| %total
---------------------------------------------------------------
Pair    | 0.0069339  | 0.0069339  | 0.0069339  |   0.0 |  0.82
Neigh   | 0.001659   | 0.001659   | 0.001659   |   0.0 |  0.20
Comm    | 0.015467   | 0.015467   | 0.015467   |   0.0 |  1.83
Output  | 2.6541e-05 | 2.6541e-05 | 2.6541e-05 |   0.0 |  0.00
Modify  | 0.8053     | 0.8053     | 0.8053     |   0.0 | 95.06
Other   |            | 0.01776    |            |       |  2.10

Nlocal:        6.00000 ave           6 max           6 min
Histogram: 1 0 0 0 0 0 0 0 0 0
Nghost:        4.00000 ave           4 max           4 min
Histogram: 1 0 0 0 0 0 0 0 0 0
Neighs:         0.00000 ave           0 max           0 min
Histogram: 1 0 0 0 0 0 0 0 0 0

Total # of neighbors = 0
Ave neighs/atom = 0.0000000
Neighbor list builds = 846
Dangerous builds = 0
fix myat1 all ave/time 10 10 100 v_xave v_xdes file position.${a}.dat
fix myat1 all ave/time 10 10 100 v_xave v_xdes file position.47.dat
run 1000000 # data aquisition
Per MPI rank memory allocation (min/avg/max) = 4.588 | 4.588 | 4.588 Mbytes
Step Temp E_pair E_mol TotEng Press 
55400000    78.604122            0            0    1.1715198   0.66941046 
55500000    129.50161            0            0    1.9300985     1.102865 
55600000    221.76035            0            0    3.3051274    1.8885613 
55700000    179.95034            0            0    2.6819889    1.5324977 
55800000    144.55452            0            0    2.1544479     1.231059 
55900000    108.78977            0            0    1.6214082   0.92647826 
56000000    103.31614            0            0    1.5398289   0.87986355 
56100000    200.28262            0            0    2.9850222     1.705652 
56200000    161.33739            0            0    2.4045806    1.3739857 
56300000    136.27427            0            0    2.0310386    1.1605425 
56400000    109.55797            0            0    1.6328574   0.93302038 
Loop time of 4.28043 on 1 procs for 1000000 steps with 6 atoms

Performance: 40369.822 ns/day, 0.001 hours/ns, 233621.654 timesteps/s
99.7% CPU use with 1 MPI tasks x 1 OpenMP threads

MPI task timing breakdown:
Section |  min time  |  avg time  |  max time  |%varavg| %total
---------------------------------------------------------------
Pair    | 0.036511   | 0.036511   | 0.036511   |   0.0 |  0.85
Neigh   | 0.0087996  | 0.0087996  | 0.0087996  |   0.0 |  0.21
Comm    | 0.08816    | 0.08816    | 0.08816    |   0.0 |  2.06
Output  | 0.00020154 | 0.00020154 | 0.00020154 |   0.0 |  0.00
Modify  | 4.0591     | 4.0591     | 4.0591     |   0.0 | 94.83
Other   |            | 0.08763    |            |       |  2.05

Nlocal:        6.00000 ave           6 max           6 min
Histogram: 1 0 0 0 0 0 0 0 0 0
Nghost:        8.00000 ave           8 max           8 min
Histogram: 1 0 0 0 0 0 0 0 0 0
Neighs:         0.00000 ave           0 max           0 min
Histogram: 1 0 0 0 0 0 0 0 0 0

Total # of neighbors = 0
Ave neighs/atom = 0.0000000
Neighbor list builds = 4287
Dangerous builds = 0
unfix myat1
next a
jump SELF loop
variable xdes equal ${a}-25
variable xdes equal 48-25
variable xave equal xcm(topull,x)
fix mytth topull spring tether ${k} ${xdes} 0 0 0
fix mytth topull spring tether 15 ${xdes} 0 0 0
fix mytth topull spring tether 15 23 0 0 0
run 200000 # equilibrate
Per MPI rank memory allocation (min/avg/max) = 4.588 | 4.588 | 4.588 Mbytes
Step Temp E_pair E_mol TotEng Press 
56400000    109.55797            0            0    1.6328574   0.93302038 
56500000    103.67057            0            0    1.5451114   0.88288202 
56600000    130.21778            0            0    1.9407723     1.108964 
Loop time of 0.853748 on 1 procs for 200000 steps with 6 atoms

Performance: 40480.328 ns/day, 0.001 hours/ns, 234261.155 timesteps/s
100.0% CPU use with 1 MPI tasks x 1 OpenMP threads

MPI task timing breakdown:
Section |  min time  |  avg time  |  max time  |%varavg| %total
---------------------------------------------------------------
Pair    | 0.0070765  | 0.0070765  | 0.0070765  |   0.0 |  0.83
Neigh   | 0.0017687  | 0.0017687  | 0.0017687  |   0.0 |  0.21
Comm    | 0.018962   | 0.018962   | 0.018962   |   0.0 |  2.22
Output  | 5.7723e-05 | 5.7723e-05 | 5.7723e-05 |   0.0 |  0.01
Modify  | 0.80801    | 0.80801    | 0.80801    |   0.0 | 94.64
Other   |            | 0.01787    |            |       |  2.09

Nlocal:        6.00000 ave           6 max           6 min
Histogram: 1 0 0 0 0 0 0 0 0 0
Nghost:        7.00000 ave           7 max           7 min
Histogram: 1 0 0 0 0 0 0 0 0 0
Neighs:         0.00000 ave           0 max           0 min
Histogram: 1 0 0 0 0 0 0 0 0 0

Total # of neighbors = 0
Ave neighs/atom = 0.0000000
Neighbor list builds = 842
Dangerous builds = 0
fix myat1 all ave/time 10 10 100 v_xave v_xdes file position.${a}.dat
fix myat1 all ave/time 10 10 100 v_xave v_xdes file position.48.dat
run 1000000 # data aquisition
Per MPI rank memory allocation (min/avg/max) = 4.588 | 4.588 | 4.588 Mbytes
Step Temp E_pair E_mol TotEng Press 
56600000    130.21778            0            0    1.9407723     1.108964 
56700000    153.28531            0            0    2.2845719    1.3054123 
56800000    150.15244            0            0    2.2378796    1.2787321 
56900000    76.949881            0            0    1.1468649   0.65532256 
57000000    142.55436            0            0    2.1246374    1.2140252 
57100000    158.17646            0            0    2.3574698    1.3470664 
57200000    152.91146            0            0    2.2790001    1.3022286 
57300000    171.10099 0.00023812732            0    2.5503358     1.483761 
57400000    88.672756            0            0    1.3215832   0.75515722 
57500000    233.45851            0            0    3.4794773    1.9881854 
57600000    138.56392            0            0    2.0651636    1.1800416 
Loop time of 4.28844 on 1 procs for 1000000 steps with 6 atoms

Performance: 40294.412 ns/day, 0.001 hours/ns, 233185.256 timesteps/s
99.6% CPU use with 1 MPI tasks x 1 OpenMP threads

MPI task timing breakdown:
Section |  min time  |  avg time  |  max time  |%varavg| %total
---------------------------------------------------------------
Pair    | 0.036787   | 0.036787   | 0.036787   |   0.0 |  0.86
Neigh   | 0.008631   | 0.008631   | 0.008631   |   0.0 |  0.20
Comm    | 0.08559    | 0.08559    | 0.08559    |   0.0 |  2.00
Output  | 0.00013935 | 0.00013935 | 0.00013935 |   0.0 |  0.00
Modify  | 4.0699     | 4.0699     | 4.0699     |   0.0 | 94.90
Other   |            | 0.08743    |            |       |  2.04

Nlocal:        6.00000 ave           6 max           6 min
Histogram: 1 0 0 0 0 0 0 0 0 0
Nghost:        5.00000 ave           5 max           5 min
Histogram: 1 0 0 0 0 0 0 0 0 0
Neighs:         0.00000 ave           0 max           0 min
Histogram: 1 0 0 0 0 0 0 0 0 0

Total # of neighbors = 0
Ave neighs/atom = 0.0000000
Neighbor list builds = 4203
Dangerous builds = 0
unfix myat1
next a
jump SELF loop
variable xdes equal ${a}-25
variable xdes equal 49-25
variable xave equal xcm(topull,x)
fix mytth topull spring tether ${k} ${xdes} 0 0 0
fix mytth topull spring tether 15 ${xdes} 0 0 0
fix mytth topull spring tether 15 24 0 0 0
run 200000 # equilibrate
Per MPI rank memory allocation (min/avg/max) = 4.588 | 4.588 | 4.588 Mbytes
Step Temp E_pair E_mol TotEng Press 
57600000    138.56392            0            0    2.0651636    1.1800416 
57700000    159.60132            0            0     2.378706    1.3592009 
57800000    256.06646            0            0    3.8164274    2.1807198 
Loop time of 0.853581 on 1 procs for 200000 steps with 6 atoms

Performance: 40488.238 ns/day, 0.001 hours/ns, 234306.931 timesteps/s
100.0% CPU use with 1 MPI tasks x 1 OpenMP threads

MPI task timing breakdown:
Section |  min time  |  avg time  |  max time  |%varavg| %total
---------------------------------------------------------------
Pair    | 0.0070526  | 0.0070526  | 0.0070526  |   0.0 |  0.83
Neigh   | 0.0017286  | 0.0017286  | 0.0017286  |   0.0 |  0.20
Comm    | 0.018453   | 0.018453   | 0.018453   |   0.0 |  2.16
Output  | 1.7749e-05 | 1.7749e-05 | 1.7749e-05 |   0.0 |  0.00
Modify  | 0.80862    | 0.80862    | 0.80862    |   0.0 | 94.73
Other   |            | 0.01771    |            |       |  2.07

Nlocal:        6.00000 ave           6 max           6 min
Histogram: 1 0 0 0 0 0 0 0 0 0
Nghost:        7.00000 ave           7 max           7 min
Histogram: 1 0 0 0 0 0 0 0 0 0
Neighs:         0.00000 ave           0 max           0 min
Histogram: 1 0 0 0 0 0 0 0 0 0

Total # of neighbors = 0
Ave neighs/atom = 0.0000000
Neighbor list builds = 832
Dangerous builds = 0
fix myat1 all ave/time 10 10 100 v_xave v_xdes file position.${a}.dat
fix myat1 all ave/time 10 10 100 v_xave v_xdes file position.49.dat
run 1000000 # data aquisition
Per MPI rank memory allocation (min/avg/max) = 4.588 | 4.588 | 4.588 Mbytes
Step Temp E_pair E_mol TotEng Press 
57800000    256.06646            0            0    3.8164274    2.1807198 
57900000    136.21514            0            0    2.0301573    1.1600389 
58000000    99.154166            0            0    1.4777987   0.84441927 
58100000    253.24703            0            0    3.7744065    2.1567089 
58200000    81.276839            0            0    1.2113541   0.69217192 
58300000    64.845432            0            0   0.96645958   0.55223835 
58400000    173.40511            0            0    2.5844385    1.4767571 
58500000    168.02746            0            0    2.5042897    1.4309598 
58600000    99.783649            0            0    1.4871805   0.84978009 
58700000    152.55604            0            0    2.2737029    1.2992017 
58800000     159.6159            0            0    2.3789233     1.359325 
Loop time of 4.37166 on 1 procs for 1000000 steps with 6 atoms

Performance: 39527.317 ns/day, 0.001 hours/ns, 228746.048 timesteps/s
98.9% CPU use with 1 MPI tasks x 1 OpenMP threads

MPI task timing breakdown:
Section |  min time  |  avg time  |  max time  |%varavg| %total
---------------------------------------------------------------
Pair    | 0.036777   | 0.036777   | 0.036777   |   0.0 |  0.84
Neigh   | 0.0088469  | 0.0088469  | 0.0088469  |   0.0 |  0.20
Comm    | 0.084197   | 0.084197   | 0.084197   |   0.0 |  1.93
Output  | 0.00012672 | 0.00012672 | 0.00012672 |   0.0 |  0.00
Modify  | 4.1529     | 4.1529     | 4.1529     |   0.0 | 95.00
Other   |            | 0.08877    |            |       |  2.03

Nlocal:        6.00000 ave           6 max           6 min
Histogram: 1 0 0 0 0 0 0 0 0 0
Nghost:        9.00000 ave           9 max           9 min
Histogram: 1 0 0 0 0 0 0 0 0 0
Neighs:         0.00000 ave           0 max           0 min
Histogram: 1 0 0 0 0 0 0 0 0 0

Total # of neighbors = 0
Ave neighs/atom = 0.0000000
Neighbor list builds = 4233
Dangerous builds = 0
unfix myat1
next a
jump SELF loop
variable xdes equal ${a}-25
variable xdes equal 50-25
variable xave equal xcm(topull,x)
fix mytth topull spring tether ${k} ${xdes} 0 0 0
fix mytth topull spring tether 15 ${xdes} 0 0 0
fix mytth topull spring tether 15 25 0 0 0
run 200000 # equilibrate
Per MPI rank memory allocation (min/avg/max) = 4.588 | 4.588 | 4.588 Mbytes
Step Temp E_pair E_mol TotEng Press 
58800000     159.6159            0            0    2.3789233     1.359325 
58900000    234.08473            0            0    3.4888106    1.9935184 
59000000    83.807786            0            0    1.2490755   0.71372603 
Loop time of 0.856017 on 1 procs for 200000 steps with 6 atoms

Performance: 40373.039 ns/day, 0.001 hours/ns, 233640.271 timesteps/s
100.0% CPU use with 1 MPI tasks x 1 OpenMP threads

MPI task timing breakdown:
Section |  min time  |  avg time  |  max time  |%varavg| %total
---------------------------------------------------------------
Pair    | 0.0068899  | 0.0068899  | 0.0068899  |   0.0 |  0.80
Neigh   | 0.0017174  | 0.0017174  | 0.0017174  |   0.0 |  0.20
Comm    | 0.017164   | 0.017164   | 0.017164   |   0.0 |  2.01
Output  | 7.906e-05  | 7.906e-05  | 7.906e-05  |   0.0 |  0.01
Modify  | 0.81257    | 0.81257    | 0.81257    |   0.0 | 94.92
Other   |            | 0.0176     |            |       |  2.06

Nlocal:        6.00000 ave           6 max           6 min
Histogram: 1 0 0 0 0 0 0 0 0 0
Nghost:        8.00000 ave           8 max           8 min
Histogram: 1 0 0 0 0 0 0 0 0 0
Neighs:         0.00000 ave           0 max           0 min
Histogram: 1 0 0 0 0 0 0 0 0 0

Total # of neighbors = 0
Ave neighs/atom = 0.0000000
Neighbor list builds = 817
Dangerous builds = 0
fix myat1 all ave/time 10 10 100 v_xave v_xdes file position.${a}.dat
fix myat1 all ave/time 10 10 100 v_xave v_xdes file position.50.dat
run 1000000 # data aquisition
Per MPI rank memory allocation (min/avg/max) = 4.588 | 4.588 | 4.588 Mbytes
Step Temp E_pair E_mol TotEng Press 
59000000    83.807786            0            0    1.2490755   0.71372603 
59100000    138.21479            0            0    2.0599602    1.1770684 
59200000     200.4043            0            0    2.9868358    1.7066883 
59300000     79.02492            0            0    1.1777914   0.67299406 
59400000    177.74318            0            0    2.6490933    1.5137011 
59500000     205.8343            0            0    3.0677648    1.7529314 
59600000    179.78286            0            0    2.6794928    1.5310715 
59700000    220.03688            0            0    3.2794407    1.8738837 
59800000    108.39869            0            0    1.6155796   0.92314776 
59900000    140.66506            0            0    2.0964792    1.1979355 
60000000    223.11067            0            0    3.3252526    1.9000608 
Loop time of 4.29442 on 1 procs for 1000000 steps with 6 atoms

Performance: 40238.281 ns/day, 0.001 hours/ns, 232860.422 timesteps/s
99.7% CPU use with 1 MPI tasks x 1 OpenMP threads

MPI task timing breakdown:
Section |  min time  |  avg time  |  max time  |%varavg| %total
---------------------------------------------------------------
Pair    | 0.036504   | 0.036504   | 0.036504   |   0.0 |  0.85
Neigh   | 0.0087721  | 0.0087721  | 0.0087721  |   0.0 |  0.20
Comm    | 0.088329   | 0.088329   | 0.088329   |   0.0 |  2.06
Output  | 0.00010477 | 0.00010477 | 0.00010477 |   0.0 |  0.00
Modify  | 4.073      | 4.073      | 4.073      |   0.0 | 94.84
Other   |            | 0.08772    |            |       |  2.04

Nlocal:        6.00000 ave           6 max           6 min
Histogram: 1 0 0 0 0 0 0 0 0 0
Nghost:        12.0000 ave          12 max          12 min
Histogram: 1 0 0 0 0 0 0 0 0 0
Neighs:        1.00000 ave           1 max           1 min
Histogram: 1 0 0 0 0 0 0 0 0 0

Total # of neighbors = 1
Ave neighs/atom = 0.16666667
Neighbor list builds = 4217
Dangerous builds = 0
unfix myat1
next a
jump SELF loop
Total wall time: 0:04:32
