ITEM: TIMESTEP
105000
ITEM: NUMBER OF ATOMS
585
ITEM: BOX BOUNDS pp pp pp
1.2258942925177916e+00 1.9359683419082572e+01
1.2587857059720395e+00 1.9326792005627880e+01
-3.1886858880665780e+00 2.3774263599664721e+01
ITEM: ATOMS id type xs ys zs
525 1 0.28046 0.272874 0.00436243
297 2 0.0587059 0.288329 0.00442811
485 2 0.291846 0.257564 0.154596
141 2 0.19568 0.258761 0.00992475
520 2 0.313571 0.251987 0.057115
128 1 0.305518 0.206863 0.107961
259 2 0.0750154 0.150067 0.169944
399 1 0.326896 0.323745 0.188254
421 2 0.247245 0.141039 0.0987604
273 1 0.0476957 0.111419 0.118247
35 2 0.0175687 0.309599 0.217934
220 2 0.115004 0.092736 0.0841818
224 2 0.207921 0.07819 0.0132761
254 1 0.198099 0.0752763 0.0726664
173 1 0.0782649 0.129468 0.226008
53 2 0.125467 0.0559461 0.231975
323 2 0.0107212 0.0343593 0.131587
200 1 0.199963 0.013958 0.244548
528 2 0.472847 0.291581 0.0323149
433 1 0.490791 0.209485 0.0201977
247 2 0.5737 0.197333 0.00203379
4 2 0.488518 0.161123 0.0690139
575 2 0.649458 0.158736 0.0757165
166 2 0.377506 0.15849 0.122493
20 1 0.623658 0.13174 0.0204013
110 1 0.442373 0.110895 0.104039
553 2 0.527378 0.0886771 0.225425
80 2 0.572024 0.0580147 0.0148278
50 2 0.459995 0.0287318 0.112191
441 2 0.381582 0.302331 0.231796
140 2 0.683974 0.256293 0.156279
449 2 0.952463 0.278749 0.123425
347 2 0.912188 0.247091 0.0207209
10 1 0.934194 0.222701 0.077441
531 2 0.856253 0.186976 0.0928575
507 1 0.955012 0.321397 0.176223
516 1 0.684888 0.180368 0.127341
193 2 0.997307 0.162396 0.0862443
228 1 0.702111 0.318264 0.200804
378 2 0.751931 0.130582 0.141524
345 1 0.837393 0.115589 0.126008
400 2 0.883624 0.117105 0.175456
243 2 0.885169 0.306371 0.211938
465 2 0.849843 0.0468209 0.0917221
226 1 0.910273 0.112954 0.231837
113 2 0.756271 0.277697 0.237298
17 2 0.995056 0.123288 0.241637
212 2 0.77741 0.0224798 0.0169477
314 2 0.260346 0.368447 0.214929
45 2 0.115856 0.407173 0.216157
569 1 0.197587 0.433148 0.215657
536 2 0.217834 0.4795 0.16844
352 1 0.265519 0.541956 0.14171
27 2 0.221794 0.582369 0.100802
722 4 0.165725 0.621627 0.0616536
721 3 0.138475 0.657302 0.0428675
153 2 0.0528358 0.653663 0.175016
482 2 0.293316 0.588977 0.187727
534 1 0.0136463 0.596792 0.212546
334 1 0.273852 0.650439 0.228729
468 2 0.0761848 0.557873 0.244193
292 2 0.628945 0.348205 0.228457
106 2 0.374663 0.372787 0.151853
354 1 0.48284 0.380917 0.0293446
116 2 0.569686 0.391023 0.0212159
348 2 0.456082 0.418313 0.0802323
65 1 0.407985 0.445352 0.126751
476 2 0.45481 0.482566 0.169611
229 2 0.337524 0.501297 0.118212
278 2 0.536092 0.653164 0.0153464
455 2 0.536051 0.599778 0.187343
533 1 0.501122 0.532863 0.213013
418 2 0.561019 0.476669 0.231245
367 2 0.676865 0.479869 0.0113201
261 2 0.736665 0.394084 0.179184
401 2 0.956406 0.406805 0.165624
390 1 0.775374 0.470475 0.178661
422 2 0.841616 0.484247 0.143758
246 1 0.933248 0.484596 0.142928
179 2 0.965389 0.498929 0.0858962
298 1 0.978408 0.522136 0.0315637
306 2 0.917065 0.578929 0.010251
79 2 0.963988 0.54341 0.181164
242 2 0.759242 0.532274 0.215918
538 2 0.965317 0.64145 0.252448
723 4 0.113034 0.686076 0.0672757
391 2 0.265819 0.729393 0.200113
416 1 0.0686638 0.73778 0.163234
24 2 0.0909475 0.744293 0.107793
283 2 0.130709 0.768018 0.198202
505 1 0.210128 0.79896 0.203997
305 2 0.2948 0.841048 0.0389831
333 2 0.323991 0.920655 0.120091
414 2 0.216006 0.998706 0.102027
407 1 0.246064 0.945656 0.145751
76 2 0.220297 0.861581 0.160667
404 2 0.242043 0.98814 0.196643
462 1 0.575961 0.696758 0.05714
497 1 0.339672 0.850735 0.0888028
513 2 0.659073 0.703658 0.0458829
274 2 0.538354 0.747639 0.0995502
95 2 0.488544 0.771144 0.196257
326 1 0.487335 0.801262 0.137365
168 2 0.40653 0.805596 0.110125
238 2 0.507543 0.886079 0.135227
5 2 0.516367 0.943807 0.0495308
435 1 0.523715 0.963435 0.107099
215 2 0.598048 0.996994 0.119927
317 1 0.529978 0.986323 0.997198
358 2 0.799017 0.68062 0.00818292
388 1 0.743269 0.740672 0.0286569
360 2 0.992633 0.780287 0.171933
43 2 0.767968 0.782233 0.0803167
21 1 0.918252 0.809926 0.19497
130 2 0.858695 0.817388 0.150233
46 1 0.787916 0.842097 0.121675
150 2 0.729705 0.856427 0.175468
546 2 0.798124 0.91692 0.0897772
307 1 0.831266 0.983986 0.0556904
114 2 0.897113 0.958827 0.021234
16 2 0.926041 0.89218 0.215792
136 1 0.725258 0.867777 0.236434
397 1 0.873516 0.948642 0.239152
509 2 0.889958 0.757252 0.237286
457 2 0.79617 0.916259 0.247904
285 2 0.262972 0.333672 0.389496
486 2 0.139839 0.321989 0.282354
47 1 0.187341 0.286935 0.40496
233 2 0.155172 0.249089 0.357152
424 1 0.158839 0.240613 0.29827
123 2 0.244507 0.212008 0.297296
211 2 0.113698 0.185482 0.26755
393 2 0.174059 0.226428 0.451042
219 1 0.277785 0.133393 0.311525
519 2 0.261321 0.109516 0.368979
277 2 0.0501812 0.274273 0.475108
442 1 0.293988 0.0801049 0.418476
170 2 0.249777 0.0739417 0.273954
445 2 0.261058 0.0751725 0.471203
294 2 0.0644864 0.133114 0.491594
119 1 0.106696 0.21189 0.490176
729 4 0.0287525 0.0231452 0.341813
236 1 0.420489 0.323271 0.284759
495 2 0.443591 0.253511 0.315758
52 2 0.543067 0.248864 0.419621
406 1 0.4805 0.195408 0.43765
227 1 0.436611 0.170064 0.334484
280 1 0.616575 0.272242 0.447417
6 2 0.431175 0.173283 0.393644
508 2 0.363364 0.136009 0.312006
135 2 0.502753 0.122173 0.316758
304 2 0.506559 0.12638 0.468891
78 2 0.430231 0.242927 0.475368
560 1 0.529795 0.0595674 0.278807
13 2 0.610943 0.0379397 0.296294
355 2 0.624894 0.223268 0.496533
205 2 0.357524 0.0246694 0.406316
115 2 0.887267 0.0316202 0.248961
728 4 0.99694 0.0760626 0.379726
727 3 0.0391171 0.0682987 0.359023
467 2 0.856352 0.305828 0.308701
39 1 0.843421 0.263803 0.255694
576 2 0.677532 0.235675 0.413507
167 2 0.863848 0.18071 0.257647
363 1 0.720558 0.165697 0.423431
265 2 0.783255 0.169898 0.461601
152 2 0.695593 0.0861997 0.407083
232 2 0.949239 0.0294474 0.474362
542 1 0.723643 0.00115958 0.405614
324 2 0.810143 0.0022178 0.429604
165 1 0.0503249 0.353095 0.447782
88 2 0.00763563 0.362296 0.39664
544 2 0.134113 0.353228 0.428862
461 1 0.0694527 0.355954 0.25377
459 2 0.0227057 0.393213 0.301028
101 1 0.310101 0.396131 0.364622
33 2 0.317493 0.481897 0.378069
108 2 0.201206 0.488839 0.263413
68 2 0.0287674 0.49569 0.373276
11 1 0.149667 0.561791 0.27504
28 1 0.0779467 0.569793 0.382132
490 2 0.13093 0.570405 0.33471
447 2 0.196874 0.628453 0.255364
458 2 0.0208734 0.639439 0.376153
186 2 0.3096 0.625074 0.42157
492 2 0.109902 0.575766 0.440623
87 2 0.200829 0.669062 0.483288
94 2 0.0218388 0.411082 0.487203
389 1 0.144896 0.602463 0.495216
387 2 0.334437 0.64885 0.271637
392 2 0.603097 0.352422 0.469304
241 2 0.362969 0.371502 0.319434
197 2 0.498302 0.365235 0.273043
551 1 0.577088 0.400243 0.260057
554 2 0.624003 0.422308 0.308157
29 1 0.360264 0.559421 0.396135
258 2 0.449914 0.557639 0.259564
454 2 0.401265 0.5933 0.349312
183 1 0.415632 0.62549 0.290006
477 2 0.412076 0.538011 0.442809
206 2 0.535503 0.583866 0.474129
356 2 0.503863 0.448168 0.483397
253 1 0.614708 0.619759 0.484949
559 1 0.467688 0.52944 0.486937
275 2 0.823665 0.338704 0.407328
434 1 0.834301 0.363317 0.349705
147 1 0.988331 0.422478 0.355595
255 1 0.810992 0.362935 0.467293
483 2 0.758509 0.398364 0.3346
402 2 0.902118 0.424828 0.352356
561 1 0.692542 0.456969 0.334254
312 2 0.679547 0.479702 0.391067
26 2 0.724252 0.529898 0.307485
395 2 0.691801 0.647756 0.265233
1 1 0.751758 0.583586 0.265722
548 2 0.829652 0.625278 0.270032
61 2 0.7945 0.543158 0.418668
327 1 0.724099 0.502924 0.438948
117 2 0.752529 0.428017 0.463407
198 2 0.673716 0.551926 0.477127
9 2 0.868708 0.638025 0.496298
427 2 0.882614 0.385885 0.495853
726 4 0.0365798 0.891385 0.335119
724 3 0.999295 0.925727 0.345214
316 1 0.280638 0.692746 0.457837
158 2 0.260076 0.767632 0.42764
131 2 0.22144 0.829898 0.257864
194 2 0.102692 0.846123 0.309515
365 2 0.226506 0.861266 0.355248
30 1 0.185625 0.87267 0.303494
272 1 0.244363 0.852636 0.412784
251 2 0.187486 0.958053 0.285945
502 2 0.316155 0.898786 0.425509
517 2 0.180435 0.887037 0.446063
518 2 0.0907903 0.994477 0.478457
550 1 0.142896 0.92829 0.493792
122 2 0.646542 0.683684 0.446609
413 2 0.46424 0.695812 0.282321
351 2 0.590885 0.750739 0.269673
552 1 0.505918 0.765968 0.257115
142 2 0.480522 0.84092 0.283727
341 2 0.57268 0.918183 0.33783
146 1 0.388525 0.944311 0.412595
19 1 0.489889 0.910635 0.320586
223 2 0.47852 0.989378 0.29086
133 2 0.431165 0.908851 0.365868
120 1 0.643444 0.958517 0.31336
18 2 0.563931 0.860579 0.449628
353 1 0.650009 0.874222 0.459012
446 2 0.441361 0.941192 0.460603
191 1 0.494622 0.877655 0.483238
547 2 0.441884 0.80817 0.491344
187 2 0.663505 0.914567 0.261853
204 2 0.677343 0.952542 0.442101
725 4 0.987348 0.911405 0.378435
174 1 0.895184 0.686449 0.271351
309 1 0.951315 0.685224 0.378146
438 2 0.9115 0.703165 0.329468
208 1 0.673424 0.727194 0.289664
331 2 0.926085 0.719188 0.428186
291 1 0.859443 0.714195 0.466828
178 2 0.788883 0.715928 0.43187
107 2 0.694562 0.725438 0.35197
55 1 0.706114 0.730865 0.413765
463 2 0.72844 0.78961 0.265528
34 2 0.69415 0.815238 0.429674
252 2 0.709473 0.97169 0.350449
456 2 0.919902 0.9101 0.423976
245 1 0.881165 0.966422 0.459534
286 2 0.238438 0.337969 0.558383
425 1 0.171097 0.291114 0.581425
481 2 0.200012 0.259628 0.632853
74 1 0.0146987 0.333859 0.605329
303 2 0.146852 0.230254 0.541474
466 2 0.015026 0.32694 0.66314
451 1 0.193455 0.222091 0.687558
493 2 0.199096 0.138332 0.669023
66 1 0.0412131 0.30115 0.718404
69 2 0.0806649 0.10283 0.624734
310 2 0.119132 0.257556 0.708292
268 2 0.201494 0.0889765 0.571623
172 1 0.16799 0.0866934 0.625125
264 1 0.248655 0.0457932 0.528432
82 1 0.026858 0.0494165 0.498408
143 2 0.258415 0.228032 0.733204
474 2 0.0169715 0.0328214 0.556104
318 1 0.00409719 0.0609993 0.612767
540 2 0.370789 0.273063 0.559635
521 2 0.503089 0.326551 0.536986
164 1 0.445987 0.261361 0.531441
185 2 0.631569 0.234174 0.600233
315 2 0.585152 0.294635 0.67745
213 2 0.485604 0.186809 0.550505
32 2 0.471903 0.198958 0.677702
325 1 0.502984 0.27598 0.697553
209 1 0.655398 0.291017 0.644532
506 1 0.521135 0.11395 0.52613
293 2 0.601998 0.104813 0.548778
84 1 0.467218 0.109806 0.670115
473 2 0.419475 0.0865675 0.622876
2 1 0.635528 0.0799624 0.675834
342 2 0.547608 0.0808886 0.665866
260 2 0.648253 0.122923 0.725583
368 2 0.424082 0.0618923 0.711654
448 2 0.47365 0.048002 0.543783
98 2 0.330154 0.0427511 0.551041
498 1 0.405896 0.0325864 0.580282
37 1 0.361676 0.0145468 0.731526
436 2 0.783595 0.292315 0.50219
344 1 0.659003 0.157291 0.577295
124 2 0.979365 0.255866 0.590149
369 2 0.852698 0.220252 0.631757
256 2 0.729788 0.268521 0.671298
479 1 0.817668 0.263747 0.677055
496 1 0.912524 0.19643 0.591146
478 1 0.792442 0.206667 0.513779
36 2 0.870497 0.197028 0.539315
494 2 0.734506 0.168182 0.548835
491 2 0.939761 0.120059 0.607584
125 2 0.676425 0.115329 0.63139
428 2 0.842059 0.233551 0.729282
279 2 0.983914 0.00641478 0.65899
71 2 0.98367 0.243658 0.743277
377 2 0.889408 0.0133919 0.738118
337 2 0.0993055 0.336879 0.587048
408 1 0.325175 0.348855 0.566566
196 2 0.075704 0.498227 0.689194
320 2 0.176309 0.504643 0.616772
487 1 0.157492 0.518859 0.672786
177 2 0.311945 0.524275 0.580471
180 2 0.192078 0.541356 0.522742
299 1 0.228449 0.545514 0.576859
58 2 0.0822578 0.620711 0.539583
207 2 0.228102 0.628637 0.596603
568 1 0.223746 0.666944 0.651191
572 2 0.0390977 0.664874 0.644606
93 1 0.0274106 0.664174 0.580875
59 2 0.299226 0.667063 0.681476
188 2 0.173594 0.606733 0.677508
44 2 0.21139 0.47449 0.707738
57 1 0.0199306 0.463531 0.728603
248 2 0.0465049 0.381878 0.7443
332 2 0.0117841 0.650906 0.747172
524 1 0.280172 0.461246 0.744042
346 2 0.334191 0.370597 0.623771
99 2 0.452202 0.342718 0.675708
543 1 0.554526 0.388587 0.512432
7 2 0.355027 0.403176 0.526845
370 1 0.391156 0.404096 0.661116
574 2 0.349942 0.432075 0.710772
62 2 0.593565 0.432943 0.553319
156 1 0.633924 0.444066 0.606448
419 2 0.579928 0.467081 0.649626
176 2 0.422694 0.474304 0.631827
118 1 0.395627 0.537914 0.594937
549 2 0.440444 0.549267 0.543508
60 2 0.397444 0.613455 0.62989
239 2 0.603838 0.654119 0.539179
381 1 0.385705 0.653419 0.681192
244 1 0.594182 0.659265 0.691956
515 1 0.593761 0.485758 0.705054
160 2 0.606587 0.574566 0.706837
557 2 0.414896 0.597437 0.722916
148 2 0.535456 0.468492 0.750273
77 2 0.852721 0.345712 0.67467
203 2 0.670322 0.370762 0.620016
31 2 0.666378 0.438071 0.717943
234 2 0.970498 0.393784 0.572726
109 1 0.948614 0.427826 0.521019
362 1 0.858999 0.429863 0.688791
364 2 0.935277 0.460078 0.705687
313 2 0.827861 0.476421 0.642325
405 2 0.701367 0.50782 0.606375
411 2 0.930328 0.513497 0.521279
64 1 0.781519 0.539572 0.619345
41 2 0.820723 0.56521 0.569903
83 1 0.892666 0.588916 0.539418
349 2 0.951861 0.627585 0.574212
437 2 0.778578 0.600674 0.660709
157 2 0.805896 0.434707 0.735244
75 1 0.0284239 0.70366 0.698292
410 2 0.0340082 0.74613 0.563129
373 2 0.185617 0.744217 0.645347
103 2 0.0918707 0.76356 0.707628
262 1 0.136363 0.809296 0.667393
452 1 0.0422506 0.832521 0.570268
42 2 0.0816191 0.841418 0.624484
51 2 0.0976571 0.871034 0.528263
409 2 0.273805 0.907204 0.616982
499 2 0.207145 0.96821 0.522469
439 2 0.176808 0.00390162 0.646694
570 1 0.234313 0.94136 0.662161
545 2 0.189637 0.874133 0.687064
340 2 0.299098 0.979123 0.699378
558 2 0.555592 0.665798 0.636118
301 2 0.559179 0.705116 0.739729
501 2 0.34419 0.70604 0.499274
444 1 0.552107 0.697906 0.58171
276 2 0.472476 0.713653 0.559775
322 2 0.415638 0.732377 0.698827
289 1 0.404373 0.753698 0.530165
319 2 0.589923 0.780953 0.582354
464 2 0.364862 0.813218 0.569274
511 2 0.37462 0.848585 0.664475
471 1 0.602331 0.864012 0.564661
102 1 0.35627 0.876361 0.608628
15 2 0.528395 0.889767 0.536455
155 1 0.652803 0.914586 0.664218
216 2 0.622688 0.913913 0.6096
295 2 0.40882 0.947152 0.598311
423 2 0.657435 0.867053 0.518884
70 2 0.584612 0.895556 0.700642
235 1 0.392951 0.812953 0.716144
105 2 0.67139 0.997234 0.679637
225 2 0.45609 0.865699 0.736226
38 1 0.537888 0.891639 0.749756
138 1 0.759148 0.675297 0.685556
565 2 0.778686 0.685838 0.742498
249 2 0.674317 0.691337 0.683647
330 2 0.795324 0.741271 0.652023
25 2 0.956605 0.753284 0.699701
450 2 0.860777 0.781737 0.507268
217 1 0.800463 0.82981 0.650726
250 2 0.823672 0.85423 0.593294
218 1 0.874601 0.856472 0.541617
430 2 0.960722 0.861885 0.564263
132 2 0.724825 0.865377 0.667568
420 2 0.857663 0.924844 0.510022
161 2 0.857261 0.846936 0.693351
137 1 0.970997 0.989307 0.71685
415 1 0.927798 0.82489 0.72619
567 2 0.975067 0.899283 0.726244
48 1 0.123278 0.245614 0.98039
394 2 0.113326 0.161357 0.973564
562 2 0.310751 0.214445 0.963622
376 2 0.135824 0.284627 0.928259
154 1 0.0953892 0.336823 0.887796
429 2 0.28002 0.285133 0.823464
527 2 0.0291666 0.292779 0.864802
192 1 0.288008 0.212606 0.790213
184 2 0.246264 0.144336 0.813309
139 2 0.206449 0.119932 0.907473
361 1 0.168449 0.0953501 0.959672
201 1 0.207522 0.0929422 0.851452
231 2 0.126234 0.0819257 0.829124
321 2 0.128847 0.0219021 0.941659
22 2 0.0302239 0.027651 0.753696
514 1 0.0678081 0.0222439 0.808115
240 2 0.00325267 0.0213317 0.848672
267 2 0.247047 0.0131575 0.848379
49 2 0.437654 0.173208 0.979527
111 1 0.368171 0.156201 0.946804
126 2 0.508615 0.278301 0.756468
145 1 0.516681 0.302849 0.81419
526 2 0.601016 0.316396 0.826829
555 2 0.485952 0.235926 0.845274
311 2 0.374153 0.182025 0.796082
237 1 0.436395 0.163756 0.837359
288 2 0.393695 0.153772 0.888048
566 2 0.485408 0.0902603 0.828737
338 2 0.628707 0.073725 0.812191
112 2 0.338255 0.0732615 0.955736
199 1 0.553453 0.0272003 0.821199
270 2 0.697606 0.123514 0.988467
372 1 0.772612 0.0844962 0.975291
522 2 0.840794 0.140227 0.973831
470 1 0.872051 0.226168 0.969966
97 2 0.801443 0.272555 0.959158
12 1 0.75417 0.331606 0.933104
284 2 0.92232 0.240376 0.921186
480 1 0.684349 0.291976 0.823261
127 1 0.940985 0.285624 0.870134
81 2 0.72388 0.300342 0.877165
144 2 0.90495 0.257847 0.819268
453 1 0.909769 0.220143 0.766495
350 2 0.680181 0.205038 0.803978
85 2 0.907071 0.135812 0.77981
282 1 0.683928 0.12255 0.780304
383 2 0.770333 0.0988021 0.779605
371 1 0.854567 0.0635886 0.782508
503 2 0.760715 0.0403757 0.923578
403 2 0.86341 0.0258437 0.834477
40 2 0.151525 0.35168 0.845756
54 2 0.0500145 0.499749 0.998989
104 2 0.289474 0.354527 0.98257
73 1 0.240226 0.360082 0.836526
189 2 0.268953 0.388637 0.888362
512 2 0.254107 0.409208 0.788128
431 2 0.0736353 0.414023 0.914607
210 1 0.264098 0.417983 0.946076
269 2 0.184813 0.447183 0.964882
263 1 0.105503 0.47676 0.950763
571 2 0.319104 0.494095 0.94012
329 2 0.0218154 0.515764 0.775002
563 2 0.307226 0.534497 0.768061
221 2 0.119747 0.549183 0.915484
529 2 0.079182 0.609732 0.833543
460 1 0.0913942 0.619425 0.891488
443 1 0.0119346 0.599258 0.794326
535 2 0.00864271 0.622483 0.911387
266 2 0.331566 0.629382 0.895741
504 2 0.439288 0.415271 0.98361
290 1 0.633776 0.418019 0.98507
384 2 0.484564 0.386101 0.820701
440 2 0.605353 0.444219 0.931993
379 1 0.514272 0.634679 0.958634
230 2 0.432538 0.601792 0.953191
417 1 0.507191 0.468868 0.806489
302 2 0.559858 0.500225 0.846371
91 1 0.359075 0.568614 0.930643
382 2 0.436732 0.521948 0.804289
556 2 0.56561 0.583056 0.925218
380 1 0.601795 0.517011 0.896528
343 1 0.383817 0.57562 0.775216
214 2 0.382699 0.648125 0.810162
86 2 0.721263 0.346018 0.782314
171 2 0.685313 0.349789 0.971271
149 2 0.910562 0.369489 0.872745
336 1 0.872758 0.648209 0.982854
67 2 0.804541 0.403671 0.92462
469 1 0.728616 0.424462 0.759283
426 1 0.864966 0.439954 0.890682
357 2 0.814134 0.48066 0.851055
475 2 0.704501 0.490414 0.797111
175 2 0.92699 0.501731 0.903397
398 1 0.746127 0.531645 0.840894
374 2 0.87033 0.620952 0.925297
23 2 0.687368 0.533269 0.884381
129 1 0.933487 0.586282 0.890553
386 2 0.941733 0.598711 0.833498
573 2 0.760761 0.614133 0.82321
488 1 0.25414 0.867884 0.98636
14 2 0.178877 0.913778 0.989979
339 2 0.141577 0.691742 0.901393
484 2 0.285036 0.73726 0.83581
121 2 0.0327576 0.934872 0.97463
564 2 0.313799 0.92411 0.962801
100 1 0.139294 0.767668 0.929197
162 2 0.0574215 0.777977 0.945727
472 2 0.212349 0.797032 0.956597
541 1 0.113684 0.939152 0.95436
271 1 0.279265 0.814404 0.809215
159 2 0.325229 0.809026 0.757831
359 2 0.0485839 0.824465 0.827217
500 2 0.19222 0.834775 0.815249
281 1 0.119851 0.872228 0.839029
287 2 0.315293 0.882934 0.836191
375 2 0.12318 0.892601 0.897049
169 2 0.107668 0.94618 0.80812
308 1 0.32513 0.968348 0.840443
182 1 0.352311 0.692604 0.856186
257 2 0.521178 0.714525 0.93395
96 2 0.449466 0.986235 0.971896
72 2 0.535836 0.723558 0.838818
296 2 0.411995 0.748072 0.87599
56 1 0.578463 0.744249 0.789251
532 1 0.498021 0.759505 0.886801
510 2 0.578797 0.941616 0.960402
300 1 0.368687 0.990434 0.948397
89 2 0.571101 0.831864 0.785477
8 2 0.519526 0.845043 0.895963
385 2 0.653874 0.856317 0.906476
195 2 0.359883 0.996363 0.787909
489 1 0.581749 0.905616 0.906857
539 2 0.371379 0.985301 0.888154
134 2 0.537073 0.971778 0.775168
412 2 0.566417 0.974517 0.869253
163 1 0.740755 0.684096 0.793975
530 2 0.665255 0.72512 0.800021
396 2 0.727715 0.800319 0.985839
328 2 0.932299 0.711927 0.975756
190 1 0.943174 0.929771 0.969926
537 2 0.756949 0.758027 0.895457
63 2 0.947284 0.770179 0.881213
151 2 0.928583 0.845955 0.956354
335 1 0.961681 0.770771 0.938939
90 2 0.919327 0.803726 0.782974
3 1 0.961134 0.820692 0.832661
523 1 0.730957 0.82415 0.927484
222 2 0.778907 0.898327 0.920766
181 1 0.926271 0.985458 0.866367
432 2 0.921689 0.984588 0.923541
92 1 0.766467 0.969512 0.891812
202 2 0.934691 0.902136 0.846626
366 2 0.73245 0.95544 0.841338
