ITEM: TIMESTEP
0
ITEM: NUMBER OF ATOMS
594
ITEM: BOX BOUNDS pp pp pp
1.2258942925177916e+00 1.9359683419082572e+01
1.2587857059720395e+00 1.9326792005627880e+01
-3.1886858880665780e+00 2.3774263599664721e+01
ITEM: ATOMS id type xs ys zs
352 1 0.233163 0.296589 0.229579
269 2 0.139165 0.173689 0.0599692
91 1 0.303055 0.310604 0.0249369
104 2 0.249541 0.0905038 0.0810549
210 1 0.226035 0.156584 0.0409606
571 2 0.26998 0.236305 0.044163
263 1 0.0602926 0.205554 0.0414897
525 1 0.239683 0.00278978 0.093957
376 2 0.0979242 0.013595 0.013753
229 2 0.310162 0.254508 0.21878
106 2 0.323985 0.115456 0.234264
297 2 0.0155826 0.0197157 0.094654
221 2 0.0807795 0.274453 0.00503088
27 2 0.195288 0.322359 0.179127
431 2 0.0270031 0.138092 0.00897753
54 2 0.001271 0.241335 0.08675
65 1 0.370887 0.185954 0.21808
348 2 0.402932 0.168713 0.163588
354 1 0.437943 0.121758 0.11814
504 2 0.404505 0.142135 0.065048
528 2 0.430484 0.0317594 0.124218
116 2 0.528447 0.13865 0.112426
290 1 0.594706 0.157308 0.0735941
440 2 0.563417 0.18108 0.018679
367 2 0.64693 0.222079 0.0950792
171 2 0.647467 0.0875698 0.0640404
556 2 0.502761 0.30763 0.0195267
12 1 0.720371 0.0640662 0.0346829
298 1 0.926706 0.254821 0.12118
246 1 0.889045 0.21753 0.234758
179 2 0.92032 0.225567 0.176355
67 2 0.774724 0.134052 0.0290175
306 2 0.869899 0.30791 0.0983208
449 2 0.913291 0.00612285 0.223977
422 2 0.79853 0.228431 0.23974
97 2 0.761762 0.00303423 0.066391
100 1 0.10066 0.494502 0.0240419
416 1 0.0245684 0.465674 0.243952
488 1 0.212478 0.594404 0.0757625
305 2 0.243522 0.557093 0.131298
497 1 0.292171 0.555355 0.181067
472 2 0.177159 0.525692 0.0442844
14 2 0.138766 0.639401 0.0803117
333 2 0.275016 0.620264 0.220414
162 2 0.0169639 0.513972 0.0408472
564 2 0.278861 0.652284 0.054786
24 2 0.0141161 0.461276 0.185741
723 4 0.113776 0.42309 0.144954
722 4 0.102982 0.437303 0.0900989
721 3 0.0766672 0.42494 0.119737
278 2 0.48515 0.383841 0.110622
230 2 0.375329 0.344965 0.0498725
379 1 0.461342 0.367737 0.0548072
257 2 0.48143 0.449003 0.0286038
168 2 0.363837 0.510914 0.194025
326 1 0.443263 0.524616 0.2236
238 2 0.451346 0.612874 0.221746
5 2 0.486997 0.66364 0.138993
513 2 0.613368 0.451299 0.114791
462 1 0.534387 0.442552 0.139057
510 2 0.543054 0.662045 0.0493577
274 2 0.507293 0.484006 0.188762
328 2 0.889373 0.450211 0.0705121
388 1 0.698237 0.474904 0.103598
336 1 0.833351 0.37648 0.0653793
358 2 0.758115 0.408114 0.0883388
374 2 0.82963 0.360717 0.00741311
335 1 0.927908 0.51042 0.0346066
546 2 0.764765 0.642089 0.173358
151 2 0.889104 0.587135 0.0522918
46 1 0.744163 0.567848 0.205372
130 2 0.82187 0.550078 0.235492
43 2 0.723826 0.512464 0.156701
396 2 0.700314 0.523189 0.0514975
121 2 0.996396 0.666515 0.0631588
843 4 0.730904 0.4593 0.235924
842 4 0.799811 0.412918 0.229691
841 3 0.74799 0.413072 0.222938
541 1 0.0792181 0.666764 0.0404157
141 2 0.153243 0.985215 0.0986748
48 1 0.0792863 0.978141 0.0662349
520 2 0.272777 0.977274 0.14927
361 1 0.131811 0.829218 0.0496189
224 2 0.166911 0.811344 0.103992
254 1 0.148396 0.801517 0.167766
394 2 0.0700512 0.890997 0.0586127
321 2 0.0980045 0.752021 0.0302397
562 2 0.274837 0.954004 0.0501996
421 2 0.186463 0.875428 0.194505
414 2 0.186077 0.729814 0.195323
220 2 0.0626123 0.79824 0.179308
128 1 0.258605 0.931061 0.201706
112 2 0.310793 0.810436 0.0543752
166 2 0.324189 0.875682 0.214247
300 1 0.332543 0.725217 0.0379056
407 1 0.218084 0.679443 0.24538
273 1 0.00327961 0.815014 0.224552
485 2 0.248725 0.992997 0.244784
435 1 0.47921 0.688007 0.195567
111 1 0.336503 0.893323 0.0330709
96 2 0.41631 0.719325 0.0597326
4 2 0.429601 0.893167 0.153215
49 2 0.412205 0.918479 0.0591739
433 1 0.451434 0.948825 0.109255
110 1 0.388589 0.833867 0.187191
50 2 0.418717 0.755912 0.197944
317 1 0.499804 0.711109 0.0889345
80 2 0.542737 0.791731 0.105247
247 2 0.539464 0.937626 0.105196
20 1 0.590702 0.866942 0.122935
575 2 0.591645 0.871631 0.184047
270 2 0.665884 0.863827 0.0893618
215 2 0.557138 0.71238 0.216544
516 1 0.614951 0.888012 0.248442
677 4 0.623516 0.936382 0.0271696
676 3 0.595948 0.905148 0.0052952
190 1 0.906496 0.670227 0.0646032
284 2 0.876728 0.980029 0.015962
193 2 0.945168 0.873698 0.195913
432 2 0.879877 0.714122 0.0148603
10 1 0.886469 0.93878 0.185335
307 1 0.792629 0.719617 0.1462
114 2 0.871955 0.698847 0.118053
212 2 0.741166 0.744368 0.101832
465 2 0.793427 0.780989 0.190452
347 2 0.869369 0.957036 0.124076
372 1 0.731024 0.812295 0.0652886
531 2 0.805497 0.917805 0.209303
470 1 0.832832 0.949853 0.0689622
522 2 0.803994 0.865806 0.0628599
345 1 0.779887 0.83892 0.234161
503 2 0.711105 0.780433 0.0103914
323 2 0.964547 0.74415 0.247421
536 2 0.180039 0.231805 0.256363
101 1 0.272569 0.135468 0.456245
285 2 0.226964 0.0699754 0.480278
486 2 0.0973462 0.0574227 0.371241
314 2 0.22113 0.113674 0.304978
33 2 0.279303 0.217939 0.476093
45 2 0.0774432 0.148422 0.300887
569 1 0.160511 0.182042 0.304447
461 1 0.0316703 0.0997329 0.340667
468 2 0.033068 0.301275 0.348613
108 2 0.162699 0.234939 0.353832
399 1 0.285679 0.0665771 0.276285
28 1 0.0358303 0.311833 0.473601
29 1 0.321185 0.297988 0.48637
241 2 0.318226 0.107612 0.409596
11 1 0.117185 0.307746 0.37281
490 2 0.102428 0.303626 0.431551
476 2 0.426141 0.205125 0.263011
441 2 0.344995 0.0509284 0.318988
533 1 0.467714 0.271981 0.29418
197 2 0.451906 0.128839 0.363388
236 1 0.382737 0.0745548 0.371279
258 2 0.41874 0.305103 0.341314
454 2 0.367687 0.328567 0.435139
495 2 0.41135 0.00116417 0.401097
418 2 0.537656 0.227812 0.318694
292 2 0.581535 0.0847185 0.327509
551 1 0.538058 0.149873 0.353026
554 2 0.577328 0.170859 0.406468
228 1 0.652706 0.0453631 0.298977
312 2 0.636722 0.214228 0.49387
561 1 0.649725 0.202072 0.435408
459 2 0.989084 0.14969 0.382928
390 1 0.737201 0.199363 0.276316
79 2 0.929883 0.274207 0.274445
401 2 0.893399 0.137815 0.25915
261 2 0.700173 0.117629 0.274358
507 1 0.905931 0.0520293 0.27644
242 2 0.705676 0.262836 0.312286
26 2 0.67469 0.278003 0.406117
35 2 0.979055 0.0474744 0.309173
113 2 0.70601 0.0026019 0.339328
147 1 0.949085 0.162302 0.439643
434 1 0.793092 0.104338 0.444681
402 2 0.860111 0.159626 0.430434
483 2 0.715731 0.143228 0.430368
88 2 0.970255 0.0971752 0.479487
467 2 0.806316 0.0313834 0.40819
1 1 0.707261 0.320992 0.35803
243 2 0.840412 0.0273814 0.312921
68 2 0.983964 0.236859 0.466326
534 1 0.979275 0.330941 0.306922
272 1 0.200039 0.574145 0.497869
283 2 0.100775 0.50467 0.263512
153 2 0.0230818 0.381437 0.269776
76 2 0.165243 0.630486 0.282477
482 2 0.24198 0.36362 0.268564
447 2 0.154076 0.378624 0.350599
334 1 0.226652 0.405554 0.320594
387 2 0.296217 0.381837 0.355394
365 2 0.146824 0.549194 0.451495
131 2 0.102689 0.549694 0.357132
30 1 0.0799898 0.567165 0.413703
502 2 0.269216 0.620562 0.474679
505 1 0.147252 0.549316 0.304003
391 2 0.219231 0.497569 0.315
251 2 0.0656439 0.657053 0.41832
194 2 0.00483303 0.522354 0.43217
455 2 0.488815 0.336211 0.256861
552 1 0.465687 0.509363 0.343263
95 2 0.450923 0.502076 0.282086
183 1 0.38008 0.36434 0.378473
413 2 0.425989 0.440584 0.372776
142 2 0.432333 0.59091 0.362446
208 1 0.636536 0.477097 0.375286
351 2 0.554036 0.502323 0.358941
395 2 0.656368 0.396714 0.351369
107 2 0.654035 0.469671 0.435263
187 2 0.617575 0.654927 0.335426
360 2 0.949846 0.507045 0.268983
150 2 0.684264 0.582653 0.252382
55 1 0.677037 0.481763 0.496472
21 1 0.869902 0.542432 0.285672
16 2 0.88063 0.6164 0.319049
509 2 0.829457 0.479206 0.32098
309 1 0.94535 0.46389 0.457716
438 2 0.874999 0.457201 0.417224
174 1 0.851614 0.418432 0.365301
548 2 0.791708 0.354266 0.368935
538 2 0.922385 0.378995 0.341402
463 2 0.688019 0.543044 0.349593
136 1 0.682984 0.609478 0.310817
458 2 0.994662 0.384394 0.458764
173 1 0.0371327 0.85058 0.336317
211 2 0.067402 0.918909 0.370008
233 2 0.114723 0.994321 0.455795
170 2 0.141418 0.771798 0.459204
442 1 0.2143 0.806768 0.497959
123 2 0.204754 0.955671 0.386457
205 2 0.286544 0.75475 0.493415
519 2 0.230347 0.884512 0.470648
424 1 0.121114 0.980883 0.396151
404 2 0.260829 0.739384 0.277332
259 2 0.0469867 0.851197 0.275364
219 1 0.261656 0.910834 0.420249
53 2 0.076163 0.780278 0.364517
200 1 0.0935116 0.739093 0.414107
146 1 0.336216 0.684671 0.479074
19 1 0.448669 0.673803 0.386061
227 1 0.417921 0.9132 0.405467
508 2 0.334266 0.889356 0.394583
135 2 0.483084 0.882015 0.369551
6 2 0.429368 0.892397 0.462959
223 2 0.465684 0.7398 0.344317
133 2 0.38448 0.691098 0.426573
560 1 0.522505 0.814614 0.339024
13 2 0.593692 0.786908 0.369123
576 2 0.65948 0.986099 0.485841
140 2 0.628727 0.978305 0.261699
120 1 0.607878 0.701739 0.388356
341 2 0.530444 0.673516 0.412498
553 2 0.551376 0.853657 0.285512
363 1 0.700138 0.910271 0.499379
457 2 0.749979 0.667607 0.315705
252 2 0.67313 0.70092 0.430364
378 2 0.693177 0.844748 0.252784
39 1 0.791693 0.987208 0.357442
167 2 0.810585 0.899173 0.362821
226 1 0.858532 0.836204 0.339179
397 1 0.828927 0.682098 0.335553
115 2 0.847945 0.754641 0.365788
152 2 0.674351 0.832853 0.480059
542 1 0.686949 0.743842 0.485425
17 2 0.944463 0.855176 0.343843
400 2 0.831405 0.821643 0.280989
1116 4 0.924888 0.953153 0.429185
1115 4 0.937747 0.91641 0.4789
1114 3 0.912376 0.910076 0.448059
1098 4 0.947746 0.758882 0.47666
1097 4 0.908956 0.78244 0.429514
1096 3 0.918331 0.740185 0.449978
320 2 0.153294 0.235444 0.707894
299 1 0.191852 0.284169 0.663891
177 2 0.280294 0.27501 0.664881
180 2 0.156092 0.273858 0.610645
337 2 0.0654807 0.0870169 0.685537
7 2 0.304346 0.141377 0.602002
408 1 0.286078 0.0878396 0.645421
286 2 0.200312 0.0694217 0.641757
492 2 0.062999 0.311987 0.529727
346 2 0.305859 0.10874 0.70293
165 1 0.0144159 0.0965903 0.536619
425 1 0.135837 0.0331734 0.675115
544 2 0.100708 0.102403 0.518545
277 2 0.0112198 0.0183168 0.563137
481 2 0.166924 0.00886109 0.728377
47 1 0.150156 0.0333049 0.502478
118 1 0.367682 0.286015 0.677548
559 1 0.445665 0.27169 0.570573
549 2 0.423774 0.28018 0.629376
176 2 0.384507 0.221775 0.720755
521 2 0.467922 0.0682589 0.611119
356 2 0.478796 0.189793 0.557165
477 2 0.376617 0.28285 0.532037
540 2 0.33797 0.0112821 0.635088
370 1 0.352764 0.144913 0.748756
543 1 0.526532 0.131151 0.591517
156 1 0.601729 0.186506 0.691015
62 2 0.56228 0.178732 0.637494
419 2 0.541032 0.20109 0.736289
203 2 0.640761 0.110136 0.700628
198 2 0.638618 0.300855 0.574712
209 1 0.625001 0.0311889 0.723388
405 2 0.661425 0.253717 0.699704
392 2 0.586837 0.0923671 0.556295
280 1 0.598234 0.0155734 0.526297
94 2 0.992069 0.161463 0.577184
74 1 0.97998 0.0762282 0.697178
109 1 0.922005 0.17281 0.614604
234 2 0.938349 0.14836 0.672352
427 2 0.860183 0.119597 0.588549
64 1 0.744071 0.290295 0.709895
117 2 0.723123 0.174365 0.568534
411 2 0.887375 0.253893 0.61449
255 1 0.779969 0.103764 0.566172
313 2 0.801896 0.225315 0.729844
327 1 0.687085 0.24545 0.539848
436 2 0.749478 0.0287993 0.592547
61 2 0.753803 0.28458 0.513083
41 2 0.775808 0.328446 0.660863
275 2 0.791789 0.0875014 0.506053
410 2 0.00843403 0.486105 0.65014
389 1 0.100443 0.335927 0.586813
186 2 0.264496 0.360697 0.50623
158 2 0.227959 0.501702 0.52698
87 2 0.159226 0.398645 0.57353
58 2 0.0444123 0.35381 0.633531
207 2 0.184411 0.366357 0.687155
501 2 0.304389 0.433077 0.589742
316 1 0.240594 0.420572 0.550301
373 2 0.156776 0.482429 0.739109
409 2 0.230711 0.635937 0.707545
51 2 0.0737178 0.609406 0.621044
42 2 0.0478008 0.581318 0.717592
517 2 0.151319 0.625422 0.535823
102 1 0.313528 0.618419 0.693816
464 2 0.319339 0.553837 0.650607
452 1 0.015496 0.573067 0.662564
568 1 0.180378 0.397691 0.742044
550 1 0.111742 0.665125 0.584274
572 2 0.00182775 0.402555 0.729258
60 2 0.369117 0.361027 0.711605
276 2 0.431638 0.456743 0.642901
289 1 0.361081 0.493881 0.615151
547 2 0.393738 0.539737 0.567829
15 2 0.472513 0.6312 0.612698
191 1 0.44288 0.610173 0.557408
511 2 0.343466 0.59691 0.748311
122 2 0.618076 0.429553 0.530916
239 2 0.573645 0.412695 0.629041
253 1 0.581557 0.371915 0.574885
558 2 0.515168 0.41174 0.725208
471 1 0.549374 0.618682 0.645365
423 2 0.606168 0.61516 0.5989
353 1 0.603946 0.622916 0.538008
319 2 0.540372 0.538376 0.670475
444 1 0.513913 0.451535 0.669603
18 2 0.520286 0.597131 0.523179
34 2 0.660661 0.564875 0.514185
155 1 0.604894 0.657044 0.749002
206 2 0.50102 0.338964 0.560181
83 1 0.85074 0.334672 0.624171
9 2 0.838183 0.384766 0.576578
349 2 0.907594 0.377331 0.659283
291 1 0.838535 0.46788 0.547273
218 1 0.84903 0.602707 0.632243
430 2 0.933908 0.604498 0.654892
250 2 0.791667 0.595762 0.679748
217 1 0.76461 0.574695 0.735054
450 2 0.841513 0.525635 0.595163
178 2 0.764317 0.469946 0.513413
330 2 0.755088 0.48619 0.742494
331 2 0.9086 0.479093 0.511609
132 2 0.685623 0.614304 0.743103
456 2 0.884061 0.64971 0.510393
93 1 0.989659 0.404923 0.668709
393 2 0.134273 0.973734 0.548012
499 2 0.176868 0.711245 0.617432
98 2 0.297751 0.795398 0.625407
264 1 0.208229 0.793617 0.612766
268 2 0.171121 0.83576 0.657953
445 2 0.192504 0.819795 0.554731
69 2 0.0447742 0.839429 0.715329
172 1 0.133085 0.825057 0.714905
303 2 0.098257 0.971274 0.639232
119 1 0.0670178 0.956171 0.585675
294 2 0.028736 0.87188 0.584645
518 2 0.0553572 0.727659 0.565074
439 2 0.138319 0.740304 0.732476
446 2 0.394667 0.670075 0.524922
164 1 0.413258 0.997154 0.607069
78 2 0.406165 0.97109 0.550418
295 2 0.353828 0.694339 0.677539
498 1 0.366368 0.779933 0.661195
448 2 0.43765 0.785069 0.628093
213 2 0.454178 0.927683 0.63193
473 2 0.377336 0.834072 0.706864
406 1 0.459641 0.926259 0.515384
304 2 0.488305 0.858113 0.550156
506 1 0.492563 0.850842 0.610911
216 2 0.572187 0.669921 0.69144
344 1 0.636196 0.88587 0.661455
293 2 0.574412 0.841006 0.632847
185 2 0.619556 0.974174 0.678747
204 2 0.627523 0.706975 0.524348
125 2 0.648439 0.848783 0.714806
355 2 0.609755 0.953279 0.568369
342 2 0.513134 0.826979 0.748381
52 2 0.51902 0.9907 0.50144
124 2 0.94573 0.999879 0.672844
420 2 0.825752 0.673522 0.596715
82 1 0.994856 0.787507 0.587547
265 2 0.764124 0.917559 0.538326
324 2 0.771345 0.735594 0.509775
245 1 0.846621 0.711687 0.541994
232 2 0.910834 0.77826 0.560092
474 2 0.985237 0.760692 0.645919
369 2 0.813284 0.969049 0.712369
494 2 0.711869 0.890098 0.629895
478 1 0.764656 0.939442 0.595691
496 1 0.880114 0.942235 0.673632
318 1 0.97007 0.798416 0.701999
491 2 0.909592 0.863203 0.694108
36 2 0.845696 0.933351 0.617225
279 2 0.949879 0.746913 0.748081
1311 4 0.736949 0.79676 0.678954
1310 4 0.779013 0.73226 0.656952
1309 3 0.762796 0.752533 0.687885
248 2 0.0186723 0.112471 0.829221
487 1 0.118966 0.252499 0.764541
196 2 0.0355179 0.226473 0.769281
73 1 0.200729 0.0930895 0.930027
524 1 0.240238 0.19743 0.838381
44 2 0.164937 0.204941 0.804916
512 2 0.231704 0.146553 0.88679
563 2 0.265497 0.276795 0.85414
574 2 0.30374 0.15916 0.798538
40 2 0.111869 0.0887334 0.934204
189 2 0.228363 0.126713 0.983754
154 1 0.0535097 0.0673001 0.976814
429 2 0.24273 0.0155303 0.914406
66 1 0.0113591 0.0268353 0.808136
126 2 0.487743 0.0173959 0.840703
145 1 0.492226 0.0377878 0.898955
99 2 0.41514 0.0845277 0.766216
343 1 0.345554 0.314886 0.861594
382 2 0.387835 0.249383 0.890888
417 1 0.463854 0.20126 0.889224
384 2 0.448376 0.11513 0.904977
325 1 0.469499 0.0166547 0.781003
557 2 0.377894 0.329449 0.80798
148 2 0.495907 0.203437 0.833819
315 2 0.547714 0.0260136 0.753624
23 2 0.632333 0.292762 0.974219
526 2 0.578744 0.0525743 0.917427
160 2 0.570364 0.312453 0.792691
515 1 0.556212 0.223781 0.792412
31 2 0.630839 0.178014 0.80786
380 1 0.553372 0.253322 0.986807
302 2 0.51455 0.236664 0.933281
175 2 0.887688 0.23643 0.99465
466 2 0.975731 0.0517091 0.754579
480 1 0.666819 0.0289927 0.917835
475 2 0.672353 0.236216 0.888998
57 1 0.98755 0.190397 0.814534
398 1 0.701989 0.280382 0.935776
527 2 0.984614 0.0254236 0.952569
157 2 0.770756 0.191003 0.82339
86 2 0.698842 0.0929479 0.87846
364 2 0.903189 0.194165 0.795327
469 1 0.692245 0.173019 0.848952
127 1 0.897055 0.0224965 0.962948
362 1 0.820881 0.178889 0.778077
77 2 0.813859 0.0925584 0.759343
81 2 0.697645 0.0408569 0.976139
479 1 0.780997 0.00998873 0.763728
149 2 0.870542 0.107601 0.962266
357 2 0.764354 0.222238 0.955781
129 1 0.890881 0.323331 0.974128
426 1 0.824764 0.175851 0.98657
256 2 0.69268 0.012217 0.760794
443 1 0.978748 0.328314 0.881844
386 2 0.903394 0.327835 0.915349
329 2 0.995145 0.244144 0.861563
188 2 0.133661 0.337866 0.772983
359 2 0.00821056 0.549335 0.919067
375 2 0.0864077 0.621813 0.986776
266 2 0.276932 0.357681 0.977258
484 2 0.246488 0.471811 0.919073
59 2 0.258911 0.392329 0.770472
529 2 0.0459788 0.344796 0.919991
182 1 0.305806 0.421953 0.943113
262 1 0.0988071 0.542501 0.760772
281 1 0.0768623 0.604295 0.926607
159 2 0.273283 0.556046 0.835725
271 1 0.239072 0.554576 0.892031
545 2 0.146423 0.613703 0.782756
287 2 0.28122 0.617933 0.921658
500 2 0.149524 0.568772 0.902499
103 2 0.0474185 0.493287 0.797619
460 1 0.0526753 0.350654 0.980264
339 2 0.103127 0.419366 0.998061
532 1 0.452655 0.486732 0.977837
296 2 0.366997 0.472795 0.972275
72 2 0.491463 0.451734 0.9299
214 2 0.346199 0.385815 0.896758
381 1 0.348767 0.388846 0.767812
322 2 0.370654 0.469674 0.787629
235 1 0.348511 0.551828 0.799846
225 2 0.412033 0.59576 0.830416
8 2 0.473692 0.574099 0.979555
489 1 0.53862 0.636915 0.990199
385 2 0.609873 0.581891 0.984587
249 2 0.627204 0.444788 0.781953
244 1 0.552206 0.397475 0.781258
56 1 0.540047 0.469257 0.881946
301 2 0.509669 0.4278 0.832165
530 2 0.622467 0.440836 0.89267
89 2 0.543426 0.55639 0.869312
70 2 0.542381 0.618687 0.780226
38 1 0.503517 0.615654 0.834228
222 2 0.745289 0.633066 0.99721
523 1 0.700505 0.556614 0.992777
332 2 0.971894 0.380112 0.833674
437 2 0.732141 0.34618 0.755821
537 2 0.726397 0.50162 0.946318
573 2 0.735435 0.360898 0.921269
565 2 0.74274 0.43912 0.837505
163 1 0.710696 0.441636 0.902008
138 1 0.715035 0.429919 0.778485
202 2 0.900168 0.63574 0.934587
90 2 0.880434 0.536779 0.869555
3 1 0.921764 0.551362 0.923063
567 2 0.949204 0.634323 0.809311
415 1 0.891545 0.56277 0.808702
161 2 0.823227 0.595783 0.77681
25 2 0.913688 0.491441 0.778061
63 2 0.905759 0.506077 0.975281
75 1 0.985856 0.434442 0.784291
535 2 0.968958 0.357913 0.995239
514 1 0.0253993 0.766547 0.900922
169 2 0.0643963 0.685561 0.903319
308 1 0.284964 0.703645 0.928722
310 2 0.0880596 0.982833 0.805107
451 1 0.165822 0.957871 0.781114
195 2 0.323643 0.732255 0.875961
570 1 0.194948 0.677376 0.75463
340 2 0.256674 0.715897 0.789654
231 2 0.086179 0.828307 0.915898
192 1 0.261163 0.949884 0.877032
267 2 0.209255 0.747989 0.934333
184 2 0.217512 0.879652 0.89531
37 1 0.323304 0.749167 0.820854
493 2 0.168305 0.872299 0.758954
201 1 0.172053 0.832006 0.937822
143 2 0.232145 0.964316 0.821963
139 2 0.173152 0.854394 0.997169
555 2 0.458582 0.968483 0.931205
566 2 0.447498 0.82455 0.909561
311 2 0.347922 0.925537 0.879582
237 1 0.402061 0.901471 0.923918
32 2 0.431066 0.936741 0.76986
288 2 0.351862 0.886433 0.97338
84 1 0.427362 0.850045 0.754652
539 2 0.33458 0.722646 0.978096
368 2 0.387356 0.795373 0.795758
134 2 0.5117 0.698897 0.862004
260 2 0.617523 0.870339 0.81129
412 2 0.530254 0.71374 0.959067
2 1 0.603435 0.821802 0.762033
105 2 0.623546 0.737507 0.772813
350 2 0.664619 0.943197 0.896498
282 1 0.649093 0.864496 0.868496
199 1 0.518508 0.764003 0.906356
338 2 0.593156 0.816372 0.900614
678 4 0.562978 0.938091 0.988523
85 2 0.869524 0.867267 0.865716
181 1 0.887489 0.718629 0.955837
403 2 0.822026 0.765752 0.927178
371 1 0.815245 0.798065 0.872237
377 2 0.853344 0.738957 0.830709
22 2 0.989281 0.770196 0.844795
453 1 0.86941 0.954379 0.858185
92 1 0.721366 0.709946 0.973682
240 2 0.962209 0.765073 0.941263
383 2 0.730407 0.820783 0.863085
144 2 0.854953 0.984227 0.915061
71 2 0.948406 0.979774 0.836258
428 2 0.808301 0.976006 0.815899
137 1 0.934535 0.723359 0.808629
366 2 0.68488 0.69361 0.922425
ITEM: TIMESTEP
1000
ITEM: NUMBER OF ATOMS
594
ITEM: BOX BOUNDS pp pp pp
1.2258942925177916e+00 1.9359683419082572e+01
1.2587857059720395e+00 1.9326792005627880e+01
-3.1886858880665780e+00 2.3774263599664721e+01
ITEM: ATOMS id type xs ys zs
352 1 0.232253 0.28054 0.231131
269 2 0.140595 0.180883 0.0586443
91 1 0.30339 0.310646 0.0210506
104 2 0.250952 0.094937 0.0770758
210 1 0.223434 0.160499 0.0381507
571 2 0.268326 0.236929 0.0367963
263 1 0.0604077 0.213114 0.0422884
525 1 0.238837 0.0106905 0.096991
376 2 0.0851597 0.0195732 0.0130938
229 2 0.312294 0.243597 0.216076
106 2 0.33005 0.110502 0.242169
297 2 0.0137713 0.0157159 0.0962367
221 2 0.0812386 0.283972 0.00781467
27 2 0.196161 0.305588 0.182679
431 2 0.0301884 0.149613 0.00800012
54 2 0.000491082 0.236538 0.0879774
65 1 0.373944 0.180215 0.222275
348 2 0.41846 0.155498 0.174474
354 1 0.444305 0.113139 0.126565
504 2 0.400719 0.141945 0.0801457
528 2 0.436453 0.0247075 0.134567
116 2 0.529175 0.117623 0.113803
290 1 0.585106 0.151843 0.0725841
440 2 0.5471 0.183854 0.0229961
367 2 0.63247 0.212132 0.100169
171 2 0.639045 0.0907494 0.0488743
556 2 0.504516 0.315682 0.0106063
12 1 0.715051 0.0738212 0.0239319
298 1 0.933162 0.264224 0.118401
246 1 0.892802 0.219824 0.231275
179 2 0.912535 0.236002 0.172478
67 2 0.769736 0.146183 0.0268602
306 2 0.874003 0.316786 0.0946532
449 2 0.896029 0.00952553 0.221456
422 2 0.804408 0.226577 0.243948
97 2 0.754662 0.00997426 0.0560657
100 1 0.103263 0.505204 0.0201854
416 1 0.0269209 0.460848 0.237456
488 1 0.217603 0.608803 0.0741782
305 2 0.261515 0.568857 0.123342
497 1 0.299349 0.566089 0.17493
472 2 0.180075 0.540026 0.0349751
14 2 0.139874 0.647694 0.0761308
333 2 0.276026 0.625493 0.212682
162 2 0.0189372 0.518701 0.032276
564 2 0.277022 0.669635 0.0560036
24 2 0.0368256 0.45631 0.180046
723 4 0.0908602 0.411871 0.141746
722 4 0.151757 0.354891 0.145897
721 3 0.129852 0.389239 0.123237
278 2 0.48491 0.391892 0.0973339
230 2 0.3764 0.343658 0.0425965
379 1 0.457601 0.371677 0.043436
257 2 0.467353 0.449635 0.0152615
168 2 0.362939 0.516728 0.19667
326 1 0.444699 0.523472 0.219994
238 2 0.454944 0.612633 0.218482
5 2 0.480417 0.669182 0.136643
513 2 0.613592 0.442851 0.117104
462 1 0.531305 0.443636 0.131786
510 2 0.538253 0.669191 0.0443535
274 2 0.500296 0.484895 0.17762
328 2 0.888323 0.455273 0.0619398
388 1 0.698807 0.474115 0.102861
336 1 0.832397 0.385591 0.0638668
358 2 0.761304 0.413558 0.0902518
374 2 0.830623 0.365574 0.00600654
335 1 0.925252 0.516986 0.0280777
546 2 0.770965 0.643947 0.175734
151 2 0.892669 0.590558 0.0474834
46 1 0.740867 0.571846 0.202987
130 2 0.80875 0.538048 0.231841
43 2 0.718238 0.521337 0.155067
396 2 0.692703 0.518498 0.0499597
121 2 0.996477 0.672769 0.06132
843 4 0.598111 0.339373 0.233687
842 4 0.636397 0.402532 0.260112
841 3 0.64424 0.36496 0.235646
541 1 0.0766233 0.678029 0.0402598
141 2 0.153752 0.00149425 0.096929
48 1 0.0802758 0.984579 0.0677286
520 2 0.271316 0.98253 0.149928
361 1 0.130723 0.833685 0.0495188
224 2 0.162754 0.808231 0.110857
254 1 0.152807 0.80792 0.171001
394 2 0.0749886 0.896545 0.0607337
321 2 0.0912437 0.761042 0.0326689
562 2 0.272039 0.959047 0.0549468
421 2 0.192971 0.880474 0.191469
414 2 0.181646 0.734236 0.201713
220 2 0.0690757 0.818795 0.187925
128 1 0.261397 0.935559 0.201139
112 2 0.309926 0.818207 0.0493557
166 2 0.328378 0.881608 0.212309
300 1 0.335473 0.737202 0.0387679
407 1 0.222826 0.680694 0.244739
273 1 0.00472811 0.837054 0.22748
485 2 0.254367 0.989414 0.248492
435 1 0.477727 0.686633 0.195301
111 1 0.333395 0.904648 0.0348276
96 2 0.413482 0.729511 0.0655392
4 2 0.428232 0.880268 0.149589
49 2 0.407704 0.92096 0.0617701
433 1 0.450757 0.943486 0.11197
110 1 0.394511 0.836309 0.192368
50 2 0.415966 0.75421 0.204032
317 1 0.496347 0.71594 0.0885749
80 2 0.545034 0.785932 0.108636
247 2 0.539351 0.925393 0.10719
20 1 0.589479 0.85921 0.127901
575 2 0.595339 0.870644 0.188949
270 2 0.667529 0.859572 0.0968022
215 2 0.553329 0.7127 0.214011
516 1 0.625615 0.883238 0.249142
677 4 0.596896 0.911563 0.0317211
676 3 0.58351 0.903577 0.9978
190 1 0.906863 0.673849 0.0614127
284 2 0.875702 0.989983 0.0108583
193 2 0.951982 0.890864 0.196976
432 2 0.874319 0.721018 0.0160397
10 1 0.884462 0.943704 0.17921
307 1 0.809269 0.716677 0.156172
114 2 0.878521 0.696917 0.117559
212 2 0.755679 0.757708 0.115956
465 2 0.809404 0.767916 0.204987
347 2 0.866741 0.968432 0.12057
372 1 0.736243 0.816623 0.0748516
531 2 0.808302 0.902905 0.191537
470 1 0.82881 0.96094 0.0609407
522 2 0.799365 0.87673 0.0588263
345 1 0.791272 0.842653 0.230575
503 2 0.716916 0.770524 0.0236844
323 2 0.957352 0.762528 0.236564
536 2 0.183973 0.220305 0.260306
101 1 0.285231 0.1422 0.457361
285 2 0.230388 0.0884363 0.486204
486 2 0.103635 0.0457533 0.364603
314 2 0.217235 0.104443 0.302924
33 2 0.29384 0.225389 0.470298
45 2 0.0799763 0.146337 0.305987
569 1 0.161956 0.17208 0.308014
461 1 0.0358492 0.0938126 0.341915
468 2 0.0477641 0.293791 0.337953
108 2 0.167259 0.218895 0.359244
399 1 0.284276 0.0631876 0.279874
28 1 0.0417921 0.300513 0.471337
29 1 0.326634 0.304981 0.485515
241 2 0.329964 0.112018 0.412517
11 1 0.121702 0.295223 0.370509
490 2 0.103934 0.293531 0.42824
476 2 0.420151 0.207368 0.268398
441 2 0.343346 0.0437406 0.324712
533 1 0.468496 0.267075 0.300779
197 2 0.463888 0.117831 0.367401
236 1 0.386769 0.0688576 0.373256
258 2 0.418868 0.299964 0.347752
454 2 0.364423 0.343024 0.435398
495 2 0.420598 0.997326 0.399096
418 2 0.536213 0.219546 0.321401
292 2 0.588581 0.0830947 0.321048
551 1 0.54822 0.146351 0.353038
554 2 0.594749 0.167675 0.400005
228 1 0.660269 0.0456889 0.297315
312 2 0.64031 0.221295 0.486726
561 1 0.660588 0.205043 0.430256
459 2 0.988293 0.125267 0.387221
390 1 0.74022 0.198398 0.278873
79 2 0.942019 0.274585 0.263694
401 2 0.907827 0.138777 0.252271
261 2 0.705489 0.118383 0.276516
507 1 0.90933 0.0549256 0.27188
242 2 0.719463 0.259478 0.318079
26 2 0.687699 0.280406 0.406969
35 2 0.9823 0.0468636 0.305575
113 2 0.710804 0.0119323 0.339223
147 1 0.957052 0.152581 0.441028
434 1 0.800711 0.110527 0.445157
402 2 0.870645 0.159888 0.435742
483 2 0.727561 0.149489 0.429817
88 2 0.972813 0.0955675 0.485579
467 2 0.808734 0.0394968 0.406279
1 1 0.718427 0.322523 0.359874
243 2 0.843686 0.0368167 0.310249
68 2 0.991102 0.227857 0.45717
534 1 0.989733 0.328317 0.299254
272 1 0.20346 0.574745 0.501219
283 2 0.0851183 0.512249 0.264318
153 2 0.0308115 0.381584 0.262446
76 2 0.177231 0.619941 0.279512
482 2 0.24286 0.348835 0.270406
447 2 0.17122 0.36526 0.354937
334 1 0.232781 0.397232 0.319599
387 2 0.30326 0.389227 0.351935
365 2 0.157021 0.554509 0.451568
131 2 0.109962 0.551327 0.356314
30 1 0.086289 0.565048 0.415526
502 2 0.281747 0.61316 0.487154
505 1 0.146488 0.54159 0.301132
391 2 0.213258 0.480687 0.306069
251 2 0.0710077 0.651222 0.423232
194 2 0.019227 0.514615 0.435894
455 2 0.499126 0.332835 0.271012
552 1 0.475468 0.506304 0.341419
95 2 0.459031 0.50561 0.279005
183 1 0.382655 0.368021 0.377223
413 2 0.430758 0.442852 0.369227
142 2 0.449969 0.588687 0.361091
208 1 0.645714 0.47167 0.373578
351 2 0.562232 0.493761 0.356414
395 2 0.664287 0.391464 0.354853
107 2 0.656778 0.469652 0.435281
187 2 0.635107 0.654766 0.344803
360 2 0.947768 0.498721 0.250918
150 2 0.682949 0.588129 0.252323
55 1 0.672198 0.472946 0.497655
21 1 0.875236 0.53312 0.273766
16 2 0.885848 0.617405 0.292516
509 2 0.846058 0.47851 0.316639
309 1 0.955319 0.449678 0.454449
438 2 0.897086 0.447923 0.409096
174 1 0.864679 0.412701 0.357856
548 2 0.79751 0.361412 0.367077
538 2 0.929285 0.369352 0.332242
463 2 0.695234 0.531586 0.344435
136 1 0.691083 0.606921 0.311609
458 2 0.992594 0.3716 0.460003
173 1 0.0304635 0.849528 0.343763
211 2 0.0717745 0.912343 0.375341
233 2 0.126375 0.00365445 0.451923
170 2 0.146729 0.7696 0.460464
442 1 0.216497 0.796579 0.497005
123 2 0.20892 0.944232 0.389703
205 2 0.289206 0.746287 0.487407
519 2 0.238646 0.873081 0.46974
424 1 0.128127 0.975609 0.394238
404 2 0.266626 0.728042 0.280602
259 2 0.0419892 0.857681 0.281191
219 1 0.266733 0.899965 0.419546
53 2 0.0593905 0.77535 0.375427
200 1 0.0964675 0.733436 0.418988
146 1 0.343544 0.675757 0.481539
19 1 0.460712 0.664276 0.389536
227 1 0.425173 0.910945 0.410415
508 2 0.342446 0.883275 0.397551
135 2 0.490478 0.875707 0.378601
6 2 0.429728 0.896592 0.468647
223 2 0.473111 0.741523 0.35441
133 2 0.393929 0.680206 0.431427
560 1 0.531537 0.810751 0.347679
13 2 0.599671 0.780889 0.378968
576 2 0.65734 0.990382 0.498568
140 2 0.636505 0.975952 0.263688
120 1 0.617441 0.702622 0.398349
341 2 0.543226 0.665828 0.415594
553 2 0.569871 0.847289 0.293686
363 1 0.695418 0.912092 0.505634
457 2 0.760289 0.661903 0.310511
252 2 0.677335 0.712854 0.442715
378 2 0.706528 0.850846 0.250536
39 1 0.794596 0.00199049 0.354201
167 2 0.812703 0.91381 0.358072
226 1 0.85976 0.84977 0.334056
397 1 0.841874 0.68733 0.310077
115 2 0.853263 0.759517 0.338408
152 2 0.667284 0.834234 0.493995
542 1 0.692137 0.745927 0.497291
17 2 0.944652 0.864209 0.351287
400 2 0.844247 0.861248 0.276481
1116 4 0.928069 0.96475 0.474661
1115 4 0.900531 0.907894 0.511511
1114 3 0.92208 0.912563 0.479255
1098 4 0.851836 0.627224 0.457721
1097 4 0.778124 0.588277 0.454017
1096 3 0.818184 0.606216 0.434272
320 2 0.150435 0.233047 0.70844
299 1 0.192707 0.275312 0.665466
177 2 0.2765 0.260694 0.667099
180 2 0.154665 0.268248 0.612518
337 2 0.0628567 0.08782 0.677049
7 2 0.314758 0.145992 0.608571
408 1 0.289956 0.0901167 0.649813
286 2 0.202682 0.0802753 0.646126
492 2 0.0668994 0.302084 0.529855
346 2 0.310779 0.107665 0.705388
165 1 0.0164115 0.090749 0.537095
425 1 0.135215 0.039255 0.669211
544 2 0.0996551 0.100948 0.520623
277 2 0.0158797 0.0109848 0.56333
481 2 0.161356 0.0104724 0.722958
47 1 0.155787 0.0409135 0.502632
118 1 0.362375 0.276008 0.679911
559 1 0.442248 0.276459 0.574894
549 2 0.413282 0.283645 0.631776
176 2 0.383592 0.214418 0.718429
521 2 0.461516 0.0719922 0.610835
356 2 0.477575 0.196188 0.568642
477 2 0.383026 0.284735 0.529939
540 2 0.332458 0.0159617 0.634407
370 1 0.354677 0.14067 0.749707
543 1 0.521375 0.132369 0.59557
156 1 0.60423 0.185945 0.692131
62 2 0.562679 0.171511 0.640955
419 2 0.546281 0.206644 0.733913