ITEM: TIMESTEP
0
ITEM: NUMBER OF ATOMS
6
ITEM: BOX BOUNDS pp pp pp
-2.5000000000000000e+01 2.5000000000000000e+01
-2.0000000000000000e+01 2.0000000000000000e+01
-2.0000000000000000e+01 2.0000000000000000e+01
ITEM: ATOMS id type xs ys zs
5 1 0.0132901 0.112409 0.353483
1 2 0.676335 0.593158 0.343017
4 1 0.828793 0.295669 0.475166
6 1 0.78933 0.374985 0.788345
2 1 0.719147 0.0628805 0.915057
3 1 0.732012 0.679289 0.883043
ITEM: TIMESTEP
1000000
ITEM: NUMBER OF ATOMS
6
ITEM: BOX BOUNDS pp pp pp
-2.5000000000000000e+01 2.5000000000000000e+01
-2.0000000000000000e+01 2.0000000000000000e+01
-2.0000000000000000e+01 2.0000000000000000e+01
ITEM: ATOMS id type xs ys zs
5 1 0.0707155 0.0730859 0.0919976
1 2 0.0318071 0.481713 0.501011
2 1 0.0324684 0.951965 0.655251
4 1 0.990963 0.318866 0.69211
3 1 0.736219 0.519229 0.93537
6 1 0.732117 0.787174 0.917046
ITEM: TIMESTEP
2000000
ITEM: NUMBER OF ATOMS
6
ITEM: BOX BOUNDS pp pp pp
-2.5000000000000000e+01 2.5000000000000000e+01
-2.0000000000000000e+01 2.0000000000000000e+01
-2.0000000000000000e+01 2.0000000000000000e+01
ITEM: ATOMS id type xs ys zs
6 1 0.00901132 0.484201 0.064009
5 1 0.994821 0.114043 0.179381
3 1 0.243382 0.915241 0.209867
1 2 0.070909 0.484726 0.502135
2 1 0.915101 0.184968 0.696809
4 1 0.228276 0.460172 0.77001
ITEM: TIMESTEP
3000000
ITEM: NUMBER OF ATOMS
6
ITEM: BOX BOUNDS pp pp pp
-2.5000000000000000e+01 2.5000000000000000e+01
-2.0000000000000000e+01 2.0000000000000000e+01
-2.0000000000000000e+01 2.0000000000000000e+01
ITEM: ATOMS id type xs ys zs
3 1 0.843107 0.185976 0.248874
5 1 0.312787 0.362469 0.32058
1 2 0.0499405 0.423331 0.520282
4 1 0.0655526 0.916184 0.481022
6 1 0.937196 0.184897 0.647333
2 1 0.891233 0.151784 0.897957
ITEM: TIMESTEP
4000000
ITEM: NUMBER OF ATOMS
6
ITEM: BOX BOUNDS pp pp pp
-2.5000000000000000e+01 2.5000000000000000e+01
-2.0000000000000000e+01 2.0000000000000000e+01
-2.0000000000000000e+01 2.0000000000000000e+01
ITEM: ATOMS id type xs ys zs
3 1 0.987408 0.187173 0.103799
1 2 0.0440159 0.56715 0.446168
2 1 0.644891 0.550446 0.511951
5 1 0.191099 0.78 0.668751
6 1 0.203639 0.255291 0.803394
4 1 0.24503 0.919802 0.81948
ITEM: TIMESTEP
5000000
ITEM: NUMBER OF ATOMS
6
ITEM: BOX BOUNDS pp pp pp
-2.5000000000000000e+01 2.5000000000000000e+01
-2.0000000000000000e+01 2.0000000000000000e+01
-2.0000000000000000e+01 2.0000000000000000e+01
ITEM: ATOMS id type xs ys zs
5 1 0.980615 0.993996 0.334101
1 2 0.0972834 0.55821 0.525378
6 1 0.95364 0.0765593 0.597064
2 1 0.0715408 0.646595 0.547133
3 1 0.959228 0.802405 0.844221
4 1 0.869185 0.505324 0.940627
ITEM: TIMESTEP
6000000
ITEM: NUMBER OF ATOMS
6
ITEM: BOX BOUNDS pp pp pp
-2.5000000000000000e+01 2.5000000000000000e+01
-2.0000000000000000e+01 2.0000000000000000e+01
-2.0000000000000000e+01 2.0000000000000000e+01
ITEM: ATOMS id type xs ys zs
4 1 0.188982 0.596336 0.122242
2 1 0.189051 0.118617 0.403729
1 2 0.0610372 0.51545 0.532478
3 1 0.243496 0.620367 0.634835
6 1 0.0577248 0.521492 0.898087
5 1 0.876743 0.212492 0.00044788
ITEM: TIMESTEP
7000000
ITEM: NUMBER OF ATOMS
6
ITEM: BOX BOUNDS pp pp pp
-2.5000000000000000e+01 2.5000000000000000e+01
-2.0000000000000000e+01 2.0000000000000000e+01
-2.0000000000000000e+01 2.0000000000000000e+01
ITEM: ATOMS id type xs ys zs
4 1 0.871377 0.317353 0.162064
5 1 0.90054 0.0921257 0.276281
2 1 0.774556 0.213687 0.396394
1 2 0.120634 0.551105 0.512372
3 1 0.171128 0.319155 0.553288
6 1 0.218022 0.27304 0.71827
ITEM: TIMESTEP
8000000
ITEM: NUMBER OF ATOMS
6
ITEM: BOX BOUNDS pp pp pp
-2.5000000000000000e+01 2.5000000000000000e+01
-2.0000000000000000e+01 2.0000000000000000e+01
-2.0000000000000000e+01 2.0000000000000000e+01
ITEM: ATOMS id type xs ys zs
5 1 0.887981 0.990248 0.211847
1 2 0.13531 0.453332 0.48078
2 1 0.949375 0.0984434 0.603957
3 1 0.94193 0.375277 0.533165
4 1 0.989273 0.180482 0.627255
6 1 0.874473 0.700926 0.685441
ITEM: TIMESTEP
9000000
ITEM: NUMBER OF ATOMS
6
ITEM: BOX BOUNDS pp pp pp
-2.5000000000000000e+01 2.5000000000000000e+01
-2.0000000000000000e+01 2.0000000000000000e+01
-2.0000000000000000e+01 2.0000000000000000e+01
ITEM: ATOMS id type xs ys zs
5 1 0.849446 0.375746 0.117267
6 1 0.210878 0.210927 0.443559
1 2 0.165165 0.502072 0.516365
4 1 0.819501 0.670491 0.532083
3 1 0.0151651 0.572517 0.676576
2 1 0.895584 0.575071 0.794901
ITEM: TIMESTEP
10000000
ITEM: NUMBER OF ATOMS
6
ITEM: BOX BOUNDS pp pp pp
-2.5000000000000000e+01 2.5000000000000000e+01
-2.0000000000000000e+01 2.0000000000000000e+01
-2.0000000000000000e+01 2.0000000000000000e+01
ITEM: ATOMS id type xs ys zs
2 1 0.188024 0.928892 0.433694
1 2 0.20623 0.502079 0.486755
5 1 0.720229 0.379901 0.638949
6 1 0.24571 0.857927 0.644731
4 1 0.140047 0.511553 0.746625
3 1 0.977843 0.0352682 0.982232
ITEM: TIMESTEP
11000000
ITEM: NUMBER OF ATOMS
6
ITEM: BOX BOUNDS pp pp pp
-2.5000000000000000e+01 2.5000000000000000e+01
-2.0000000000000000e+01 2.0000000000000000e+01
-2.0000000000000000e+01 2.0000000000000000e+01
ITEM: ATOMS id type xs ys zs
4 1 0.0459135 0.756155 0.0194211
5 1 0.0486755 0.392727 0.286646
1 2 0.210642 0.568561 0.498631
3 1 0.920562 0.565265 0.521227
2 1 0.0572216 0.468929 0.876667
6 1 0.132159 0.801706 0.870241
ITEM: TIMESTEP
12000000
ITEM: NUMBER OF ATOMS
6
ITEM: BOX BOUNDS pp pp pp
-2.5000000000000000e+01 2.5000000000000000e+01
-2.0000000000000000e+01 2.0000000000000000e+01
-2.0000000000000000e+01 2.0000000000000000e+01
ITEM: ATOMS id type xs ys zs
4 1 0.0957551 0.759745 0.309487
3 1 0.739001 0.436973 0.408878
1 2 0.185869 0.517114 0.498053
5 1 0.227704 0.654239 0.684584
6 1 0.736222 0.69093 0.773251
2 1 0.866715 0.671235 0.928098
ITEM: TIMESTEP
13000000
ITEM: NUMBER OF ATOMS
6
ITEM: BOX BOUNDS pp pp pp
-2.5000000000000000e+01 2.5000000000000000e+01
-2.0000000000000000e+01 2.0000000000000000e+01
-2.0000000000000000e+01 2.0000000000000000e+01
ITEM: ATOMS id type xs ys zs
2 1 0.940558 0.35311 0.173233
6 1 0.104504 0.892195 0.174218
1 2 0.220786 0.506993 0.457555
5 1 0.965207 0.89741 0.5249
4 1 0.875897 0.0918189 0.650156
3 1 0.280819 0.0627002 0.884808
ITEM: TIMESTEP
14000000
ITEM: NUMBER OF ATOMS
6
ITEM: BOX BOUNDS pp pp pp
-2.5000000000000000e+01 2.5000000000000000e+01
-2.0000000000000000e+01 2.0000000000000000e+01
-2.0000000000000000e+01 2.0000000000000000e+01
ITEM: ATOMS id type xs ys zs
2 1 0.108497 0.595055 0.0521115
5 1 0.829661 0.468655 0.340407
1 2 0.266329 0.447671 0.444734
6 1 0.644016 0.327136 0.55305
4 1 0.0452121 0.474953 0.825609
3 1 0.313874 0.918056 0.947413
ITEM: TIMESTEP
15000000
ITEM: NUMBER OF ATOMS
6
ITEM: BOX BOUNDS pp pp pp
-2.5000000000000000e+01 2.5000000000000000e+01
-2.0000000000000000e+01 2.0000000000000000e+01
-2.0000000000000000e+01 2.0000000000000000e+01
ITEM: ATOMS id type xs ys zs
2 1 0.0400964 0.572088 0.224967
4 1 0.939837 0.611958 0.24916
6 1 0.757877 0.0548205 0.291305
1 2 0.277215 0.501624 0.520423
5 1 0.238351 0.751485 0.776181
3 1 0.000542338 0.309205 0.801393
ITEM: TIMESTEP
16000000
ITEM: NUMBER OF ATOMS
6
ITEM: BOX BOUNDS pp pp pp
-2.5000000000000000e+01 2.5000000000000000e+01
-2.0000000000000000e+01 2.0000000000000000e+01
-2.0000000000000000e+01 2.0000000000000000e+01
ITEM: ATOMS id type xs ys zs
3 1 0.0286392 0.347689 0.0201112
4 1 0.0209358 0.490219 0.324706
5 1 0.980667 0.918375 0.241813
2 1 0.149536 0.0221392 0.461878
1 2 0.256226 0.506646 0.496927
6 1 0.0447682 0.193747 0.849527
ITEM: TIMESTEP
17000000
ITEM: NUMBER OF ATOMS
6
ITEM: BOX BOUNDS pp pp pp
-2.5000000000000000e+01 2.5000000000000000e+01
-2.0000000000000000e+01 2.0000000000000000e+01
-2.0000000000000000e+01 2.0000000000000000e+01
ITEM: ATOMS id type xs ys zs
4 1 0.136487 0.816774 0.0653244
2 1 0.750917 0.708942 0.263282
3 1 -7.46889e-05 0.510163 0.363651
1 2 0.260446 0.422394 0.511575
6 1 0.265886 0.915347 0.726484
5 1 0.689707 0.261151 1.012
ITEM: TIMESTEP
18000000
ITEM: NUMBER OF ATOMS
6
ITEM: BOX BOUNDS pp pp pp
-2.5000000000000000e+01 2.5000000000000000e+01
-2.0000000000000000e+01 2.0000000000000000e+01
-2.0000000000000000e+01 2.0000000000000000e+01
ITEM: ATOMS id type xs ys zs
3 1 0.717764 1.00648 0.373195
2 1 0.106473 0.477411 0.509603
1 2 0.260788 0.535075 0.489477
6 1 0.979506 0.0751973 0.742658
4 1 0.857308 0.0605833 0.86743
5 1 0.209957 0.795245 0.813232
ITEM: TIMESTEP
19000000
ITEM: NUMBER OF ATOMS
6
ITEM: BOX BOUNDS pp pp pp
-2.5000000000000000e+01 2.5000000000000000e+01
-2.0000000000000000e+01 2.0000000000000000e+01
-2.0000000000000000e+01 2.0000000000000000e+01
ITEM: ATOMS id type xs ys zs
5 1 0.817204 0.226791 0.0702484
4 1 0.958231 0.207122 0.0114097
6 1 0.724323 0.190663 0.0862896
2 1 0.0919488 0.13328 0.439699
3 1 0.127287 0.598391 0.397713
1 2 0.299803 0.480219 0.511766
ITEM: TIMESTEP
20000000
ITEM: NUMBER OF ATOMS
6
ITEM: BOX BOUNDS pp pp pp
-2.5000000000000000e+01 2.5000000000000000e+01
-2.0000000000000000e+01 2.0000000000000000e+01
-2.0000000000000000e+01 2.0000000000000000e+01
ITEM: ATOMS id type xs ys zs
5 1 0.0192566 0.374847 0.487892
1 2 0.320109 0.455578 0.532914
4 1 0.358725 0.256141 0.612273
6 1 0.96182 0.671141 0.655752
3 1 0.135293 0.970401 0.671165
2 1 0.222467 0.325251 0.799712
ITEM: TIMESTEP
21000000
ITEM: NUMBER OF ATOMS
6
ITEM: BOX BOUNDS pp pp pp
-2.5000000000000000e+01 2.5000000000000000e+01
-2.0000000000000000e+01 2.0000000000000000e+01
-2.0000000000000000e+01 2.0000000000000000e+01
ITEM: ATOMS id type xs ys zs
6 1 0.225709 0.976026 0.187662
5 1 0.905007 0.0703178 0.386586
1 2 0.376652 0.538487 0.473943
3 1 0.0445522 0.672709 0.4881
4 1 0.254794 0.0598201 0.708556
2 1 0.196196 0.328908 0.703415
ITEM: TIMESTEP
22000000
ITEM: NUMBER OF ATOMS
6
ITEM: BOX BOUNDS pp pp pp
-2.5000000000000000e+01 2.5000000000000000e+01
-2.0000000000000000e+01 2.0000000000000000e+01
-2.0000000000000000e+01 2.0000000000000000e+01
ITEM: ATOMS id type xs ys zs
6 1 0.852313 0.3235 0.198113
5 1 0.117862 0.85191 0.379308
3 1 0.739455 0.140009 0.616272
1 2 0.344949 0.534741 0.550779
2 1 0.307276 0.779653 0.83998
4 1 0.18939 0.781945 0.85515
ITEM: TIMESTEP
23000000
ITEM: NUMBER OF ATOMS
6
ITEM: BOX BOUNDS pp pp pp
-2.5000000000000000e+01 2.5000000000000000e+01
-2.0000000000000000e+01 2.0000000000000000e+01
-2.0000000000000000e+01 2.0000000000000000e+01
ITEM: ATOMS id type xs ys zs
5 1 0.146674 0.258013 0.112755
1 2 0.355252 0.466154 0.493747
2 1 0.0936303 0.0582267 0.528974
3 1 0.170726 0.360535 0.769144
6 1 0.136875 0.672268 0.808969
4 1 0.13936 0.422344 0.935016
ITEM: TIMESTEP
24000000
ITEM: NUMBER OF ATOMS
6
ITEM: BOX BOUNDS pp pp pp
-2.5000000000000000e+01 2.5000000000000000e+01
-2.0000000000000000e+01 2.0000000000000000e+01
-2.0000000000000000e+01 2.0000000000000000e+01
ITEM: ATOMS id type xs ys zs
6 1 0.905139 0.909467 0.0130236
1 2 0.371432 0.498948 0.522453
4 1 0.146285 0.532084 0.628859
2 1 0.0681819 0.874693 0.690785
3 1 0.824024 0.180436 0.849415
5 1 0.913176 0.483638 0.824301
ITEM: TIMESTEP
25000000
ITEM: NUMBER OF ATOMS
6
ITEM: BOX BOUNDS pp pp pp
-2.5000000000000000e+01 2.5000000000000000e+01
-2.0000000000000000e+01 2.0000000000000000e+01
-2.0000000000000000e+01 2.0000000000000000e+01
ITEM: ATOMS id type xs ys zs
3 1 0.175264 0.872992 0.223618
2 1 0.230936 0.953371 0.312432
4 1 0.907935 0.312612 0.359497
6 1 0.933695 0.768706 0.34643
1 2 0.362497 0.503605 0.511695
5 1 0.229325 0.0472669 0.658709
ITEM: TIMESTEP
26000000
ITEM: NUMBER OF ATOMS
6
ITEM: BOX BOUNDS pp pp pp
-2.5000000000000000e+01 2.5000000000000000e+01
-2.0000000000000000e+01 2.0000000000000000e+01
-2.0000000000000000e+01 2.0000000000000000e+01
ITEM: ATOMS id type xs ys zs
2 1 0.080451 0.795914 0.352017
1 2 0.382887 0.49539 0.457378
6 1 0.151701 0.34382 0.656897
3 1 0.677249 0.470882 0.73034
5 1 0.759386 0.846334 0.788106
4 1 0.933992 0.698029 0.849347
ITEM: TIMESTEP
27000000
ITEM: NUMBER OF ATOMS
6
ITEM: BOX BOUNDS pp pp pp
-2.5000000000000000e+01 2.5000000000000000e+01
-2.0000000000000000e+01 2.0000000000000000e+01
-2.0000000000000000e+01 2.0000000000000000e+01
ITEM: ATOMS id type xs ys zs
4 1 0.907052 0.947573 0.112852
3 1 0.0260032 0.199124 0.193257
2 1 0.854931 0.396397 0.359061
1 2 0.374168 0.523405 0.445766
5 1 0.842623 0.813962 0.594194
6 1 0.0480618 0.168965 0.987641
ITEM: TIMESTEP
28000000
ITEM: NUMBER OF ATOMS
6
ITEM: BOX BOUNDS pp pp pp
-2.5000000000000000e+01 2.5000000000000000e+01
-2.0000000000000000e+01 2.0000000000000000e+01
-2.0000000000000000e+01 2.0000000000000000e+01
ITEM: ATOMS id type xs ys zs
3 1 0.777339 0.902263 0.0634134
6 1 0.0197475 0.138599 0.540134
1 2 0.374947 0.49799 0.496546
4 1 0.762475 0.312239 0.594388
2 1 0.148684 0.792378 0.555543
5 1 0.931365 0.566563 0.760852
ITEM: TIMESTEP
29000000
ITEM: NUMBER OF ATOMS
6
ITEM: BOX BOUNDS pp pp pp
-2.5000000000000000e+01 2.5000000000000000e+01
-2.0000000000000000e+01 2.0000000000000000e+01
-2.0000000000000000e+01 2.0000000000000000e+01
ITEM: ATOMS id type xs ys zs
2 1 0.251479 0.305117 0.192267
3 1 0.839107 0.940536 0.445568
6 1 0.815393 0.284159 0.495287
1 2 0.376748 0.516361 0.495859
5 1 0.971656 0.655771 0.61716
4 1 0.933373 0.203476 0.836976
ITEM: TIMESTEP
30000000
ITEM: NUMBER OF ATOMS
6
ITEM: BOX BOUNDS pp pp pp
-2.5000000000000000e+01 2.5000000000000000e+01
-2.0000000000000000e+01 2.0000000000000000e+01
-2.0000000000000000e+01 2.0000000000000000e+01
ITEM: ATOMS id type xs ys zs
6 1 0.0318699 0.86366 0.116878
1 2 0.366301 0.488868 0.45446
5 1 0.800146 0.0713867 0.529098
2 1 0.0308548 0.473229 0.501391
3 1 0.76443 0.696282 0.544557
4 1 0.992838 0.586088 0.867756
ITEM: TIMESTEP
31000000
ITEM: NUMBER OF ATOMS
6
ITEM: BOX BOUNDS pp pp pp
-2.5000000000000000e+01 2.5000000000000000e+01
-2.0000000000000000e+01 2.0000000000000000e+01
-2.0000000000000000e+01 2.0000000000000000e+01
ITEM: ATOMS id type xs ys zs
3 1 0.760727 0.51052 0.306571
6 1 0.792791 0.359742 0.413446
1 2 0.377852 0.454334 0.525599
2 1 0.0777661 0.35401 0.570333
5 1 0.31883 0.488616 0.622792
4 1 0.850431 0.978798 0.702948
ITEM: TIMESTEP
32000000
ITEM: NUMBER OF ATOMS
6
ITEM: BOX BOUNDS pp pp pp
-2.5000000000000000e+01 2.5000000000000000e+01
-2.0000000000000000e+01 2.0000000000000000e+01
-2.0000000000000000e+01 2.0000000000000000e+01
ITEM: ATOMS id type xs ys zs
3 1 0.109077 0.0461657 0.0137122
4 1 0.199164 0.0694743 0.100303
1 2 0.376477 0.489756 0.49139
5 1 0.9387 0.11158 0.565719
6 1 0.979075 0.577201 0.605321
2 1 0.178584 0.487917 0.719912
ITEM: TIMESTEP
33000000
ITEM: NUMBER OF ATOMS
6
ITEM: BOX BOUNDS pp pp pp
-2.5000000000000000e+01 2.5000000000000000e+01
-2.0000000000000000e+01 2.0000000000000000e+01
-2.0000000000000000e+01 2.0000000000000000e+01
ITEM: ATOMS id type xs ys zs
2 1 0.325363 0.0463536 0.129969
3 1 0.102107 0.32599 0.302223
1 2 0.386914 0.486573 0.478996
6 1 0.191802 0.491583 0.549213
4 1 0.0458228 0.229396 0.633678
5 1 0.30022 0.00973966 0.976684
ITEM: TIMESTEP
34000000
ITEM: NUMBER OF ATOMS
6
ITEM: BOX BOUNDS pp pp pp
-2.5000000000000000e+01 2.5000000000000000e+01
-2.0000000000000000e+01 2.0000000000000000e+01
-2.0000000000000000e+01 2.0000000000000000e+01
ITEM: ATOMS id type xs ys zs
5 1 0.720205 0.651189 0.079245
1 2 0.386208 0.471972 0.533386
6 1 0.917021 0.14102 0.535733
4 1 0.254423 0.0348961 0.813742
3 1 0.0660588 0.263523 0.909393
2 1 0.834972 0.915775 0.970063
ITEM: TIMESTEP
35000000
ITEM: NUMBER OF ATOMS
6
ITEM: BOX BOUNDS pp pp pp
-2.5000000000000000e+01 2.5000000000000000e+01
-2.0000000000000000e+01 2.0000000000000000e+01
-2.0000000000000000e+01 2.0000000000000000e+01
ITEM: ATOMS id type xs ys zs
4 1 0.0675246 0.0465293 0.362098
3 1 0.890954 0.1053 0.414981
1 2 0.3779 0.564433 0.478447
6 1 0.986369 0.923865 0.673601
2 1 0.253243 0.313549 0.903265
5 1 0.180931 0.524607 0.966953
ITEM: TIMESTEP
36000000
ITEM: NUMBER OF ATOMS
6
ITEM: BOX BOUNDS pp pp pp
-2.5000000000000000e+01 2.5000000000000000e+01
-2.0000000000000000e+01 2.0000000000000000e+01
-2.0000000000000000e+01 2.0000000000000000e+01
ITEM: ATOMS id type xs ys zs
5 1 0.0752484 0.871962 0.392264
1 2 0.378798 0.498632 0.51244
3 1 0.689183 0.00314638 0.78875
2 1 0.140064 0.821162 0.893984
6 1 0.220581 0.937481 0.860646
4 1 0.335587 0.235899 0.940829
ITEM: TIMESTEP
37000000
ITEM: NUMBER OF ATOMS
6
ITEM: BOX BOUNDS pp pp pp
-2.5000000000000000e+01 2.5000000000000000e+01
-2.0000000000000000e+01 2.0000000000000000e+01
-2.0000000000000000e+01 2.0000000000000000e+01
ITEM: ATOMS id type xs ys zs
3 1 0.192776 0.687758 0.0441977
4 1 0.910634 0.161353 0.135792
6 1 0.146944 0.162812 0.363105
2 1 0.850158 0.188703 0.522181
1 2 0.392771 0.529005 0.523789
5 1 0.786591 0.69542 0.617434
ITEM: TIMESTEP
38000000
ITEM: NUMBER OF ATOMS
6
ITEM: BOX BOUNDS pp pp pp
-2.5000000000000000e+01 2.5000000000000000e+01
-2.0000000000000000e+01 2.0000000000000000e+01
-2.0000000000000000e+01 2.0000000000000000e+01
ITEM: ATOMS id type xs ys zs
4 1 0.171049 0.0636023 -0.00642234
2 1 0.0650417 0.349664 0.0145431
6 1 0.898601 0.556599 0.437029
1 2 0.389068 0.55615 0.492737
5 1 0.825572 0.541218 0.703678
3 1 0.011711 0.990785 0.757807
ITEM: TIMESTEP
39000000
ITEM: NUMBER OF ATOMS
6
ITEM: BOX BOUNDS pp pp pp
-2.5000000000000000e+01 2.5000000000000000e+01
-2.0000000000000000e+01 2.0000000000000000e+01
-2.0000000000000000e+01 2.0000000000000000e+01
ITEM: ATOMS id type xs ys zs
2 1 0.0552672 0.283403 0.182028
3 1 0.0859437 0.540532 0.275553
5 1 0.853785 0.873222 0.265972
6 1 0.16357 0.694674 0.346284
1 2 0.673837 0.481 0.51731
4 1 0.117043 0.473895 0.80333
ITEM: TIMESTEP
40000000
ITEM: NUMBER OF ATOMS
6
ITEM: BOX BOUNDS pp pp pp
-2.5000000000000000e+01 2.5000000000000000e+01
-2.0000000000000000e+01 2.0000000000000000e+01
-2.0000000000000000e+01 2.0000000000000000e+01
ITEM: ATOMS id type xs ys zs
3 1 0.954847 0.950068 0.0894184
2 1 0.683975 0.621155 0.23571
6 1 0.0240268 0.558967 0.301938
1 2 0.683992 0.457041 0.461822
4 1 0.0113992 0.784162 0.904296
5 1 0.11992 0.100634 0.947424
ITEM: TIMESTEP
41000000
ITEM: NUMBER OF ATOMS
6
ITEM: BOX BOUNDS pp pp pp
-2.5000000000000000e+01 2.5000000000000000e+01
-2.0000000000000000e+01 2.0000000000000000e+01
-2.0000000000000000e+01 2.0000000000000000e+01
ITEM: ATOMS id type xs ys zs
3 1 0.162964 0.0688937 0.0158442
2 1 0.833644 0.118266 0.157623
6 1 0.314218 0.402689 0.263759
1 2 0.716417 0.442798 0.423736
4 1 0.302798 0.503568 0.755973
5 1 0.110516 0.213828 0.941556
ITEM: TIMESTEP
42000000
ITEM: NUMBER OF ATOMS
6
ITEM: BOX BOUNDS pp pp pp
-2.5000000000000000e+01 2.5000000000000000e+01
-2.0000000000000000e+01 2.0000000000000000e+01
-2.0000000000000000e+01 2.0000000000000000e+01
ITEM: ATOMS id type xs ys zs
4 1 0.927178 0.0845605 0.0775666
5 1 0.362484 0.806185 0.366652
6 1 0.74753 0.144018 0.408179
2 1 0.171763 0.962087 0.377196
1 2 0.679875 0.474067 0.497664
3 1 0.995208 0.278313 0.901592
ITEM: TIMESTEP
43000000
ITEM: NUMBER OF ATOMS
6
ITEM: BOX BOUNDS pp pp pp
-2.5000000000000000e+01 2.5000000000000000e+01
-2.0000000000000000e+01 2.0000000000000000e+01
-2.0000000000000000e+01 2.0000000000000000e+01
ITEM: ATOMS id type xs ys zs
3 1 0.724499 0.452664 0.362136
4 1 0.147574 0.998023 0.368772
5 1 0.981584 0.0877552 0.466431
1 2 0.693312 0.529394 0.444361
6 1 0.0313837 0.853134 0.611691
2 1 0.149975 0.0261711 0.780952
ITEM: TIMESTEP
44000000
ITEM: NUMBER OF ATOMS
6
ITEM: BOX BOUNDS pp pp pp
-2.5000000000000000e+01 2.5000000000000000e+01
-2.0000000000000000e+01 2.0000000000000000e+01
-2.0000000000000000e+01 2.0000000000000000e+01
ITEM: ATOMS id type xs ys zs
3 1 0.131351 0.699386 0.193324
6 1 0.912119 0.490127 0.337855
5 1 0.78396 0.680944 0.406997
1 2 0.737442 0.487357 0.475272
2 1 0.73371 0.217903 0.666667
4 1 0.87519 0.362796 0.924751
ITEM: TIMESTEP
45000000
ITEM: NUMBER OF ATOMS
6
ITEM: BOX BOUNDS pp pp pp
-2.5000000000000000e+01 2.5000000000000000e+01
-2.0000000000000000e+01 2.0000000000000000e+01
-2.0000000000000000e+01 2.0000000000000000e+01
ITEM: ATOMS id type xs ys zs
2 1 0.814148 0.552568 0.147619
1 2 0.77797 0.479366 0.488435
5 1 0.165368 0.707395 0.449435
6 1 0.0799998 0.779234 0.525293
4 1 0.233022 0.849418 0.551832
3 1 0.233987 0.114267 0.690597
ITEM: TIMESTEP
46000000
ITEM: NUMBER OF ATOMS
6
ITEM: BOX BOUNDS pp pp pp
-2.5000000000000000e+01 2.5000000000000000e+01
-2.0000000000000000e+01 2.0000000000000000e+01
-2.0000000000000000e+01 2.0000000000000000e+01
ITEM: ATOMS id type xs ys zs
2 1 0.200036 0.0710401 0.0575504
5 1 0.255518 0.53922 0.28512
4 1 0.120007 0.931936 0.364966
3 1 0.202584 0.976732 0.425258
6 1 0.819941 0.225426 0.582703
1 2 0.738462 0.497791 0.45941
ITEM: TIMESTEP
47000000
ITEM: NUMBER OF ATOMS
6
ITEM: BOX BOUNDS pp pp pp
-2.5000000000000000e+01 2.5000000000000000e+01
-2.0000000000000000e+01 2.0000000000000000e+01
-2.0000000000000000e+01 2.0000000000000000e+01
ITEM: ATOMS id type xs ys zs
4 1 0.0466938 0.625301 0.0554415
3 1 0.826016 0.892043 0.422856
5 1 0.723874 0.259115 0.43745
1 2 0.786713 0.458926 0.516935
2 1 0.92947 0.682844 0.603148
6 1 0.0915846 0.275113 0.819712
ITEM: TIMESTEP
48000000
ITEM: NUMBER OF ATOMS
6
ITEM: BOX BOUNDS pp pp pp
-2.5000000000000000e+01 2.5000000000000000e+01
-2.0000000000000000e+01 2.0000000000000000e+01
-2.0000000000000000e+01 2.0000000000000000e+01
ITEM: ATOMS id type xs ys zs
6 1 0.0325952 0.181328 0.192859
2 1 0.145598 0.414079 0.133215
5 1 0.00738397 0.723581 0.254643
1 2 0.807277 0.494189 0.562715
3 1 0.155867 0.578402 0.693896
4 1 0.208254 0.720891 0.799342
ITEM: TIMESTEP
49000000
ITEM: NUMBER OF ATOMS
6
ITEM: BOX BOUNDS pp pp pp
-2.5000000000000000e+01 2.5000000000000000e+01
-2.0000000000000000e+01 2.0000000000000000e+01
-2.0000000000000000e+01 2.0000000000000000e+01
ITEM: ATOMS id type xs ys zs
5 1 0.985835 0.145318 0.0472638
6 1 0.774765 0.805339 0.253393
3 1 0.894925 0.852476 0.360576
1 2 0.810862 0.436613 0.522291
2 1 0.904642 0.0941017 0.580733
4 1 0.264609 0.622175 0.692262
ITEM: TIMESTEP
50000000
ITEM: NUMBER OF ATOMS
6
ITEM: BOX BOUNDS pp pp pp
-2.5000000000000000e+01 2.5000000000000000e+01
-2.0000000000000000e+01 2.0000000000000000e+01
-2.0000000000000000e+01 2.0000000000000000e+01
ITEM: ATOMS id type xs ys zs
3 1 0.731893 0.925959 0.372384
5 1 0.344761 0.724135 0.442502
1 2 0.92581 0.515106 0.529077
2 1 0.298275 0.598781 0.600465
6 1 0.10487 0.00693261 0.87295
4 1 0.913364 0.366405 0.957936
ITEM: TIMESTEP
51000000
ITEM: NUMBER OF ATOMS
6
ITEM: BOX BOUNDS pp pp pp
-2.5000000000000000e+01 2.5000000000000000e+01
-2.0000000000000000e+01 2.0000000000000000e+01
-2.0000000000000000e+01 2.0000000000000000e+01
ITEM: ATOMS id type xs ys zs
4 1 0.226314 0.224318 0.334641
2 1 0.0384732 0.321803 0.377356
1 2 0.886857 0.474077 0.526894
5 1 0.869448 0.66338 0.467815
3 1 0.68637 0.884938 0.849183
6 1 0.819999 0.624378 0.925262
ITEM: TIMESTEP
52000000
ITEM: NUMBER OF ATOMS
6
ITEM: BOX BOUNDS pp pp pp
-2.5000000000000000e+01 2.5000000000000000e+01
-2.0000000000000000e+01 2.0000000000000000e+01
-2.0000000000000000e+01 2.0000000000000000e+01
ITEM: ATOMS id type xs ys zs
6 1 0.146258 0.753421 0.290553
2 1 0.107674 0.392265 0.545234
1 2 0.919237 0.479524 0.521083
3 1 0.976437 0.674523 0.495254
5 1 0.23262 0.0113543 0.535349
4 1 0.848213 0.728486 0.589801
ITEM: TIMESTEP
53000000
ITEM: NUMBER OF ATOMS
6
ITEM: BOX BOUNDS pp pp pp
-2.5000000000000000e+01 2.5000000000000000e+01
-2.0000000000000000e+01 2.0000000000000000e+01
-2.0000000000000000e+01 2.0000000000000000e+01
ITEM: ATOMS id type xs ys zs
3 1 0.340733 0.380883 0.312456
6 1 0.144639 0.894359 0.44895
1 2 0.920107 0.549604 0.476863
4 1 0.251966 0.442346 0.626241
2 1 0.873737 0.0725238 0.784598
5 1 0.297272 0.702009 0.863507
ITEM: TIMESTEP
54000000
ITEM: NUMBER OF ATOMS
6
ITEM: BOX BOUNDS pp pp pp
-2.5000000000000000e+01 2.5000000000000000e+01
-2.0000000000000000e+01 2.0000000000000000e+01
-2.0000000000000000e+01 2.0000000000000000e+01
ITEM: ATOMS id type xs ys zs
4 1 0.266674 0.0613394 0.276328
1 2 0.901115 0.531182 0.449923
6 1 0.249695 0.668547 0.711179
5 1 0.728945 0.455414 0.85983
2 1 0.838568 0.537869 0.797902
3 1 0.773746 0.925987 0.969725
ITEM: TIMESTEP
55000000
ITEM: NUMBER OF ATOMS
6
ITEM: BOX BOUNDS pp pp pp
-2.5000000000000000e+01 2.5000000000000000e+01
-2.0000000000000000e+01 2.0000000000000000e+01
-2.0000000000000000e+01 2.0000000000000000e+01
ITEM: ATOMS id type xs ys zs
5 1 0.846258 0.264598 0.336734
2 1 0.137889 0.478731 0.451943
1 2 0.933 0.4576 0.483904
3 1 0.687711 0.936369 0.789566
6 1 0.319841 0.0624979 0.790093
4 1 0.826836 0.6478 0.828006
ITEM: TIMESTEP
56000000
ITEM: NUMBER OF ATOMS
6
ITEM: BOX BOUNDS pp pp pp
-2.5000000000000000e+01 2.5000000000000000e+01
-2.0000000000000000e+01 2.0000000000000000e+01
-2.0000000000000000e+01 2.0000000000000000e+01
ITEM: ATOMS id type xs ys zs
4 1 0.918746 0.694957 0.393862
1 2 0.901242 0.484053 0.478387
5 1 0.798133 0.614967 0.530679
6 1 0.193816 0.408434 0.540786
3 1 0.187436 0.379372 0.729227
2 1 0.666618 0.769474 0.781018
ITEM: TIMESTEP
57000000
ITEM: NUMBER OF ATOMS
6
ITEM: BOX BOUNDS pp pp pp
-2.5000000000000000e+01 2.5000000000000000e+01
-2.0000000000000000e+01 2.0000000000000000e+01
-2.0000000000000000e+01 2.0000000000000000e+01
ITEM: ATOMS id type xs ys zs
2 1 0.856336 0.822306 0.0831784
3 1 0.182851 0.299615 0.402527
6 1 0.974764 0.986175 0.406196
1 2 0.970004 0.532904 0.481135
4 1 0.250204 0.143786 0.633804
5 1 0.821698 0.933022 0.742594
ITEM: TIMESTEP
58000000
ITEM: NUMBER OF ATOMS
6
ITEM: BOX BOUNDS pp pp pp
-2.5000000000000000e+01 2.5000000000000000e+01
-2.0000000000000000e+01 2.0000000000000000e+01
-2.0000000000000000e+01 2.0000000000000000e+01
ITEM: ATOMS id type xs ys zs
6 1 0.983832 0.213149 0.146248
4 1 0.242545 0.692977 0.256127
5 1 0.870633 0.679032 0.259485
1 2 0.0266099 0.546276 0.489377
2 1 0.971951 0.23237 0.65829
3 1 0.262876 0.719872 0.691611
ITEM: TIMESTEP
59000000
ITEM: NUMBER OF ATOMS
6
ITEM: BOX BOUNDS pp pp pp
-2.5000000000000000e+01 2.5000000000000000e+01
-2.0000000000000000e+01 2.0000000000000000e+01
-2.0000000000000000e+01 2.0000000000000000e+01
ITEM: ATOMS id type xs ys zs
5 1 0.793056 0.292874 0.109822
4 1 0.985378 0.807143 0.155987
6 1 0.134398 0.96123 0.15418
1 2 0.0134442 0.550248 0.448288
3 1 0.989439 0.580759 0.577324
2 1 0.14562 0.0370784 0.946715
ITEM: TIMESTEP
60000000
ITEM: NUMBER OF ATOMS
6
ITEM: BOX BOUNDS pp pp pp
-2.5000000000000000e+01 2.5000000000000000e+01
-2.0000000000000000e+01 2.0000000000000000e+01
-2.0000000000000000e+01 2.0000000000000000e+01
ITEM: ATOMS id type xs ys zs
6 1 0.280046 0.635092 -0.007586
4 1 0.115647 0.613802 0.242579
1 2 0.992889 0.505272 0.492257
2 1 0.783976 0.0305888 0.578039
3 1 0.0483714 0.360956 0.710658
5 1 0.0776043 0.575796 0.865708
