LAMMPS (29 Sep 2021 - Update 2)
OMP_NUM_THREADS environment is not set. Defaulting to 1 thread. (src/comm.cpp:98)
  using 1 OpenMP thread(s) per MPI task
# LAMMPS input script
# author : Simon Gravelle
# lammpstutorials.github.io

# define a bunch of variables
variable sigma equal 3.405 # Angstrom
variable epsilon equal 0.238 # Kcal/mol
variable U0 equal 10*${epsilon} # Kcal/mol
variable U0 equal 10*0.238 
variable dlt equal 0.5 # Angstrom
variable x0 equal 5.0 # Angstrom
variable k equal 0.15 # Kcal/mol/Angstrom^2

# initialise the simulation
units real
atom_style atomic
pair_style lj/cut 3.822 # 2^(1/6) * 3.405 WCA potential
pair_modify shift yes
boundary p p p

# define the system
region myreg block -25 25 -20 20 -20 20
create_box 2 myreg
Created orthogonal box = (-25.000000 -20.000000 -20.000000) to (25.000000 20.000000 20.000000)
  1 by 1 by 1 MPI processor grid
create_atoms 2 single 0 0 0
Created 1 atoms
  using lattice units in orthogonal box = (-25.000000 -20.000000 -20.000000) to (25.000000 20.000000 20.000000)
  create_atoms CPU = 0.000 seconds
create_atoms 1 random 5 341341 myreg
Created 5 atoms
  using lattice units in orthogonal box = (-25.000000 -20.000000 -20.000000) to (25.000000 20.000000 20.000000)
  create_atoms CPU = 0.000 seconds

# settings
mass * 39.948
pair_coeff * * ${epsilon} ${sigma}
pair_coeff * * 0.238 ${sigma}
pair_coeff * * 0.238 3.405
neigh_modify every 1 delay 4 check yes
group topull type 2
1 atoms in group topull

# run
variable U atom ${U0}*atan((x+${x0})/${dlt})-${U0}*atan((x-${x0})/${dlt})
variable U atom 2.38*atan((x+${x0})/${dlt})-${U0}*atan((x-${x0})/${dlt})
variable U atom 2.38*atan((x+5)/${dlt})-${U0}*atan((x-${x0})/${dlt})
variable U atom 2.38*atan((x+5)/0.5)-${U0}*atan((x-${x0})/${dlt})
variable U atom 2.38*atan((x+5)/0.5)-2.38*atan((x-${x0})/${dlt})
variable U atom 2.38*atan((x+5)/0.5)-2.38*atan((x-5)/${dlt})
variable U atom 2.38*atan((x+5)/0.5)-2.38*atan((x-5)/0.5)
variable F atom ${U0}/((x-${x0})^2/${dlt}^2+1)/${dlt}-${U0}/((x+${x0})^2/${dlt}^2+1)/${dlt}
variable F atom 2.38/((x-${x0})^2/${dlt}^2+1)/${dlt}-${U0}/((x+${x0})^2/${dlt}^2+1)/${dlt}
variable F atom 2.38/((x-5)^2/${dlt}^2+1)/${dlt}-${U0}/((x+${x0})^2/${dlt}^2+1)/${dlt}
variable F atom 2.38/((x-5)^2/0.5^2+1)/${dlt}-${U0}/((x+${x0})^2/${dlt}^2+1)/${dlt}
variable F atom 2.38/((x-5)^2/0.5^2+1)/0.5-${U0}/((x+${x0})^2/${dlt}^2+1)/${dlt}
variable F atom 2.38/((x-5)^2/0.5^2+1)/0.5-2.38/((x+${x0})^2/${dlt}^2+1)/${dlt}
variable F atom 2.38/((x-5)^2/0.5^2+1)/0.5-2.38/((x+5)^2/${dlt}^2+1)/${dlt}
variable F atom 2.38/((x-5)^2/0.5^2+1)/0.5-2.38/((x+5)^2/0.5^2+1)/${dlt}
variable F atom 2.38/((x-5)^2/0.5^2+1)/0.5-2.38/((x+5)^2/0.5^2+1)/0.5
fix pot all addforce v_F 0.0 0.0 energy v_U

fix mynve all nve
fix mylgv all langevin 119.8 119.8 100 1530917
timestep 2.0
thermo 100000
run 2000000
Neighbor list info ...
  update every 1 steps, delay 4 steps, check yes
  max neighbors/atom: 2000, page size: 100000
  master list distance cutoff = 5.822
  ghost atom cutoff = 5.822
  binsize = 2.911, bins = 18 14 14
  1 neighbor lists, perpetual/occasional/extra = 1 0 0
  (1) pair lj/cut, perpetual
      attributes: half, newton on
      pair build: half/bin/atomonly/newton
      stencil: half/bin/3d
      bin: standard
Per MPI rank memory allocation (min/avg/max) = 3.588 | 3.588 | 3.588 Mbytes
Step Temp E_pair E_mol TotEng Press 
       0            0            0            0            0            0 
  100000    144.27464            0            0    2.1502765    1.2286754 
  200000    128.87393            0            0    1.9207435    1.0975195 
  300000    105.63962            0            0    1.5744582   0.89965085 
  400000    128.55471            0            0    1.9159858    1.0948009 
  500000    147.17089            0            0    2.1934423    1.2533405 
  600000    179.73914            0            0    2.6788412    1.5306991 
  700000    232.10339            0            0    3.4592806    1.9766449 
  800000    107.18199            0            0    1.5974458   0.91278607 
  900000    127.91015            0            0    1.9063792    1.0893117 
 1000000    142.78185            0            0    2.1280279    1.2159625 
 1100000      222.829            0            0    3.3210545     1.897662 
 1200000    138.65062            0            0    2.0664557      1.18078 
 1300000     103.3186            0            0    1.5398656   0.87988453 
 1400000     161.4875            0            0    2.4068178     1.375264 
 1500000     137.8119            0            0    2.0539555    1.1736373 
 1600000    108.41217            0            0    1.6157805   0.92326256 
 1700000    136.81855            0            0    2.0391505    1.1651777 
 1800000    108.41587            0            0    1.6158355   0.92329399 
 1900000    164.70502            0            0    2.4547718    1.4026651 
 2000000    161.99531            0            0    2.4143863    1.3795887 
Loop time of 7.83003 on 1 procs for 2000000 steps with 6 atoms

Performance: 44137.744 ns/day, 0.001 hours/ns, 255426.757 timesteps/s
100.0% CPU use with 1 MPI tasks x 1 OpenMP threads

MPI task timing breakdown:
Section |  min time  |  avg time  |  max time  |%varavg| %total
---------------------------------------------------------------
Pair    | 0.065729   | 0.065729   | 0.065729   |   0.0 |  0.84
Neigh   | 0.017064   | 0.017064   | 0.017064   |   0.0 |  0.22
Comm    | 0.16431    | 0.16431    | 0.16431    |   0.0 |  2.10
Output  | 0.00025606 | 0.00025606 | 0.00025606 |   0.0 |  0.00
Modify  | 7.4179     | 7.4179     | 7.4179     |   0.0 | 94.74
Other   |            | 0.1648     |            |       |  2.10

Nlocal:        6.00000 ave           6 max           6 min
Histogram: 1 0 0 0 0 0 0 0 0 0
Nghost:        7.00000 ave           7 max           7 min
Histogram: 1 0 0 0 0 0 0 0 0 0
Neighs:         0.00000 ave           0 max           0 min
Histogram: 1 0 0 0 0 0 0 0 0 0

Total # of neighbors = 0
Ave neighs/atom = 0.0000000
Neighbor list builds = 8974
Dangerous builds = 0
reset_timestep 0

dump mydmp all atom 1000000 dump.lammpstrj

variable a loop 50
label loop
variable xdes equal ${a}-25
variable xdes equal 1-25
variable xave equal xcm(topull,x)
fix mytth topull spring tether ${k} ${xdes} 0 0 0
fix mytth topull spring tether 0.15 ${xdes} 0 0 0
fix mytth topull spring tether 0.15 -24 0 0 0
run 200000 # equilibrate
Per MPI rank memory allocation (min/avg/max) = 4.588 | 4.588 | 4.588 Mbytes
Step Temp E_pair E_mol TotEng Press 
       0    161.99531            0            0    2.4143863    1.3795887 
  100000    149.42524            0            0    2.2270413    1.2725391 
  200000     145.2448            0            0    2.1647358    1.2369375 
Loop time of 0.776351 on 1 procs for 200000 steps with 6 atoms

Performance: 44515.956 ns/day, 0.001 hours/ns, 257615.486 timesteps/s
100.0% CPU use with 1 MPI tasks x 1 OpenMP threads

MPI task timing breakdown:
Section |  min time  |  avg time  |  max time  |%varavg| %total
---------------------------------------------------------------
Pair    | 0.0069199  | 0.0069199  | 0.0069199  |   0.0 |  0.89
Neigh   | 0.0017632  | 0.0017632  | 0.0017632  |   0.0 |  0.23
Comm    | 0.015938   | 0.015938   | 0.015938   |   0.0 |  2.05
Output  | 2.2355e-05 | 2.2355e-05 | 2.2355e-05 |   0.0 |  0.00
Modify  | 0.73579    | 0.73579    | 0.73579    |   0.0 | 94.78
Other   |            | 0.01591    |            |       |  2.05

Nlocal:        6.00000 ave           6 max           6 min
Histogram: 1 0 0 0 0 0 0 0 0 0
Nghost:        9.00000 ave           9 max           9 min
Histogram: 1 0 0 0 0 0 0 0 0 0
Neighs:        1.00000 ave           1 max           1 min
Histogram: 1 0 0 0 0 0 0 0 0 0

Total # of neighbors = 1
Ave neighs/atom = 0.16666667
Neighbor list builds = 946
Dangerous builds = 0
fix myat1 all ave/time 10 10 100 v_xave v_xdes file position.${a}.dat
fix myat1 all ave/time 10 10 100 v_xave v_xdes file position.1.dat
run 1000000 # data aquisition
Per MPI rank memory allocation (min/avg/max) = 4.588 | 4.588 | 4.588 Mbytes
Step Temp E_pair E_mol TotEng Press 
  200000     145.2448            0            0    2.1647358    1.2369375 
  300000    117.23783            0            0    1.7473185   0.99842385 
  400000     96.89205            0            0     1.444084   0.82515458 
  500000    120.60848            0            0    1.7975548     1.027129 
  600000      113.524            0            0    1.6919673   0.96679599 
  700000     179.4779            0            0    2.6749477    1.5284744 
  800000    191.78553            0            0    2.8583811    1.6332889 
  900000    177.26356            0            0    2.6419449    1.5096165 
 1000000    155.54477            0            0    2.3182471    1.3246544 
 1100000    143.11596            0            0    2.1330075    1.2188078 
 1200000    67.547294            0            0    1.0067283   0.57524801 
Loop time of 3.94936 on 1 procs for 1000000 steps with 6 atoms

Performance: 43753.912 ns/day, 0.001 hours/ns, 253205.508 timesteps/s
99.6% CPU use with 1 MPI tasks x 1 OpenMP threads

MPI task timing breakdown:
Section |  min time  |  avg time  |  max time  |%varavg| %total
---------------------------------------------------------------
Pair    | 0.033238   | 0.033238   | 0.033238   |   0.0 |  0.84
Neigh   | 0.0084878  | 0.0084878  | 0.0084878  |   0.0 |  0.21
Comm    | 0.079113   | 0.079113   | 0.079113   |   0.0 |  2.00
Output  | 0.00010422 | 0.00010422 | 0.00010422 |   0.0 |  0.00
Modify  | 3.7478     | 3.7478     | 3.7478     |   0.0 | 94.90
Other   |            | 0.08066    |            |       |  2.04

Nlocal:        6.00000 ave           6 max           6 min
Histogram: 1 0 0 0 0 0 0 0 0 0
Nghost:        7.00000 ave           7 max           7 min
Histogram: 1 0 0 0 0 0 0 0 0 0
Neighs:         0.00000 ave           0 max           0 min
Histogram: 1 0 0 0 0 0 0 0 0 0

Total # of neighbors = 0
Ave neighs/atom = 0.0000000
Neighbor list builds = 4454
Dangerous builds = 0
unfix myat1
next a
jump SELF loop
variable xdes equal ${a}-25
variable xdes equal 2-25
variable xave equal xcm(topull,x)
fix mytth topull spring tether ${k} ${xdes} 0 0 0
fix mytth topull spring tether 0.15 ${xdes} 0 0 0
fix mytth topull spring tether 0.15 -23 0 0 0
run 200000 # equilibrate
Per MPI rank memory allocation (min/avg/max) = 4.588 | 4.588 | 4.588 Mbytes
Step Temp E_pair E_mol TotEng Press 
 1200000    67.547294            0            0    1.0067283   0.57524801 
 1300000    132.26748            0            0    1.9713212    1.1264197 
 1400000     129.8789            0            0    1.9357216     1.106078 
Loop time of 0.77326 on 1 procs for 200000 steps with 6 atoms

Performance: 44693.884 ns/day, 0.001 hours/ns, 258645.162 timesteps/s
100.0% CPU use with 1 MPI tasks x 1 OpenMP threads

MPI task timing breakdown:
Section |  min time  |  avg time  |  max time  |%varavg| %total
---------------------------------------------------------------
Pair    | 0.0064261  | 0.0064261  | 0.0064261  |   0.0 |  0.83
Neigh   | 0.0016941  | 0.0016941  | 0.0016941  |   0.0 |  0.22
Comm    | 0.016518   | 0.016518   | 0.016518   |   0.0 |  2.14
Output  | 2.987e-05  | 2.987e-05  | 2.987e-05  |   0.0 |  0.00
Modify  | 0.73255    | 0.73255    | 0.73255    |   0.0 | 94.74
Other   |            | 0.01604    |            |       |  2.07

Nlocal:        6.00000 ave           6 max           6 min
Histogram: 1 0 0 0 0 0 0 0 0 0
Nghost:        11.0000 ave          11 max          11 min
Histogram: 1 0 0 0 0 0 0 0 0 0
Neighs:         0.00000 ave           0 max           0 min
Histogram: 1 0 0 0 0 0 0 0 0 0

Total # of neighbors = 0
Ave neighs/atom = 0.0000000
Neighbor list builds = 903
Dangerous builds = 0
fix myat1 all ave/time 10 10 100 v_xave v_xdes file position.${a}.dat
fix myat1 all ave/time 10 10 100 v_xave v_xdes file position.2.dat
run 1000000 # data aquisition
Per MPI rank memory allocation (min/avg/max) = 4.588 | 4.588 | 4.588 Mbytes
Step Temp E_pair E_mol TotEng Press 
 1400000     129.8789            0            0    1.9357216     1.106078 
 1500000    211.79436            0            0    3.1565938    1.8036886 
 1600000    90.912975            0            0    1.3549715   0.77423543 
 1700000    122.93176            0            0    1.8321811    1.0469146 
 1800000    78.845071            0            0    1.1751109   0.67146244 
 1900000    159.52283            0            0    2.3775363    1.3585324 
 2000000    127.13828            0            0    1.8948753    1.0827383 
 2100000    218.69389            0            0    3.2594248    1.8624466 
 2200000    91.378408            0            0    1.3619084   0.77819916 
 2300000     91.68776            0            0     1.366519   0.78083367 
 2400000    172.90482            0            0    2.5769821    1.4724965 
Loop time of 4.28036 on 1 procs for 1000000 steps with 6 atoms

Performance: 40370.481 ns/day, 0.001 hours/ns, 233625.467 timesteps/s
98.9% CPU use with 1 MPI tasks x 1 OpenMP threads

MPI task timing breakdown:
Section |  min time  |  avg time  |  max time  |%varavg| %total
---------------------------------------------------------------
Pair    | 0.035281   | 0.035281   | 0.035281   |   0.0 |  0.82
Neigh   | 0.009356   | 0.009356   | 0.009356   |   0.0 |  0.22
Comm    | 0.087315   | 0.087315   | 0.087315   |   0.0 |  2.04
Output  | 0.00017513 | 0.00017513 | 0.00017513 |   0.0 |  0.00
Modify  | 4.0609     | 4.0609     | 4.0609     |   0.0 | 94.87
Other   |            | 0.08731    |            |       |  2.04

Nlocal:        6.00000 ave           6 max           6 min
Histogram: 1 0 0 0 0 0 0 0 0 0
Nghost:        5.00000 ave           5 max           5 min
Histogram: 1 0 0 0 0 0 0 0 0 0
Neighs:         0.00000 ave           0 max           0 min
Histogram: 1 0 0 0 0 0 0 0 0 0

Total # of neighbors = 0
Ave neighs/atom = 0.0000000
Neighbor list builds = 4470
Dangerous builds = 0
unfix myat1
next a
jump SELF loop
variable xdes equal ${a}-25
variable xdes equal 3-25
variable xave equal xcm(topull,x)
fix mytth topull spring tether ${k} ${xdes} 0 0 0
fix mytth topull spring tether 0.15 ${xdes} 0 0 0
fix mytth topull spring tether 0.15 -22 0 0 0
run 200000 # equilibrate
Per MPI rank memory allocation (min/avg/max) = 4.588 | 4.588 | 4.588 Mbytes
Step Temp E_pair E_mol TotEng Press 
 2400000    172.90482            0            0    2.5769821    1.4724965 
 2500000    140.08137            0            0    2.0877798    1.1929646 
 2600000    137.31248            0            0    2.0465121    1.1693841 
Loop time of 0.871266 on 1 procs for 200000 steps with 6 atoms

Performance: 39666.400 ns/day, 0.001 hours/ns, 229550.925 timesteps/s
100.0% CPU use with 1 MPI tasks x 1 OpenMP threads

MPI task timing breakdown:
Section |  min time  |  avg time  |  max time  |%varavg| %total
---------------------------------------------------------------
Pair    | 0.0073377  | 0.0073377  | 0.0073377  |   0.0 |  0.84
Neigh   | 0.0019478  | 0.0019478  | 0.0019478  |   0.0 |  0.22
Comm    | 0.017225   | 0.017225   | 0.017225   |   0.0 |  1.98
Output  | 4.8537e-05 | 4.8537e-05 | 4.8537e-05 |   0.0 |  0.01
Modify  | 0.82677    | 0.82677    | 0.82677    |   0.0 | 94.89
Other   |            | 0.01793    |            |       |  2.06

Nlocal:        6.00000 ave           6 max           6 min
Histogram: 1 0 0 0 0 0 0 0 0 0
Nghost:        5.00000 ave           5 max           5 min
Histogram: 1 0 0 0 0 0 0 0 0 0
Neighs:         0.00000 ave           0 max           0 min
Histogram: 1 0 0 0 0 0 0 0 0 0

Total # of neighbors = 0
Ave neighs/atom = 0.0000000
Neighbor list builds = 889
Dangerous builds = 0
fix myat1 all ave/time 10 10 100 v_xave v_xdes file position.${a}.dat
fix myat1 all ave/time 10 10 100 v_xave v_xdes file position.3.dat
run 1000000 # data aquisition
Per MPI rank memory allocation (min/avg/max) = 4.588 | 4.588 | 4.588 Mbytes
Step Temp E_pair E_mol TotEng Press 
 2600000    137.31248            0            0    2.0465121    1.1693841 
 2700000    111.34012            0            0    1.6594187   0.94819758 
 2800000     147.8595            0            0    2.2037054    1.2592049 
 2900000    129.99422            0            0    1.9374404    1.1070601 
 3000000    104.91941            0            0    1.5637242   0.89351741 
 3100000    89.836845            0            0    1.3389329   0.76507086 
 3200000    31.507317            0            0   0.46958663   0.26832342 
 3300000    245.44976            0            0    3.6581955    2.0903056 
 3400000    200.63161  0.032331649            0    3.0225552    2.1202143 
 3500000    144.51296            0            0    2.1538285     1.230705 
 3600000    193.85348            0            0     2.889202       1.6509 
Loop time of 4.19164 on 1 procs for 1000000 steps with 6 atoms

Performance: 41224.878 ns/day, 0.001 hours/ns, 238569.893 timesteps/s
98.8% CPU use with 1 MPI tasks x 1 OpenMP threads

MPI task timing breakdown:
Section |  min time  |  avg time  |  max time  |%varavg| %total
---------------------------------------------------------------
Pair    | 0.035676   | 0.035676   | 0.035676   |   0.0 |  0.85
Neigh   | 0.0090106  | 0.0090106  | 0.0090106  |   0.0 |  0.21
Comm    | 0.085075   | 0.085075   | 0.085075   |   0.0 |  2.03
Output  | 0.00015683 | 0.00015683 | 0.00015683 |   0.0 |  0.00
Modify  | 3.9771     | 3.9771     | 3.9771     |   0.0 | 94.88
Other   |            | 0.08466    |            |       |  2.02

Nlocal:        6.00000 ave           6 max           6 min
Histogram: 1 0 0 0 0 0 0 0 0 0
Nghost:        7.00000 ave           7 max           7 min
Histogram: 1 0 0 0 0 0 0 0 0 0
Neighs:         0.00000 ave           0 max           0 min
Histogram: 1 0 0 0 0 0 0 0 0 0

Total # of neighbors = 0
Ave neighs/atom = 0.0000000
Neighbor list builds = 4478
Dangerous builds = 0
unfix myat1
next a
jump SELF loop
variable xdes equal ${a}-25
variable xdes equal 4-25
variable xave equal xcm(topull,x)
fix mytth topull spring tether ${k} ${xdes} 0 0 0
fix mytth topull spring tether 0.15 ${xdes} 0 0 0
fix mytth topull spring tether 0.15 -21 0 0 0
run 200000 # equilibrate
Per MPI rank memory allocation (min/avg/max) = 4.588 | 4.588 | 4.588 Mbytes
Step Temp E_pair E_mol TotEng Press 
 3600000    193.85348            0            0     2.889202       1.6509 
 3700000    129.04293            0            0    1.9232623    1.0989587 
 3800000    209.27727            0            0    3.1190789    1.7822525 
Loop time of 0.809865 on 1 procs for 200000 steps with 6 atoms

Performance: 42673.797 ns/day, 0.001 hours/ns, 246954.846 timesteps/s
100.0% CPU use with 1 MPI tasks x 1 OpenMP threads

MPI task timing breakdown:
Section |  min time  |  avg time  |  max time  |%varavg| %total
---------------------------------------------------------------
Pair    | 0.0071876  | 0.0071876  | 0.0071876  |   0.0 |  0.89
Neigh   | 0.0017394  | 0.0017394  | 0.0017394  |   0.0 |  0.21
Comm    | 0.016733   | 0.016733   | 0.016733   |   0.0 |  2.07
Output  | 3.2154e-05 | 3.2154e-05 | 3.2154e-05 |   0.0 |  0.00
Modify  | 0.76745    | 0.76745    | 0.76745    |   0.0 | 94.76
Other   |            | 0.01672    |            |       |  2.06

Nlocal:        6.00000 ave           6 max           6 min
Histogram: 1 0 0 0 0 0 0 0 0 0
Nghost:        8.00000 ave           8 max           8 min
Histogram: 1 0 0 0 0 0 0 0 0 0
Neighs:        1.00000 ave           1 max           1 min
Histogram: 1 0 0 0 0 0 0 0 0 0

Total # of neighbors = 1
Ave neighs/atom = 0.16666667
Neighbor list builds = 891
Dangerous builds = 0
fix myat1 all ave/time 10 10 100 v_xave v_xdes file position.${a}.dat
fix myat1 all ave/time 10 10 100 v_xave v_xdes file position.4.dat
run 1000000 # data aquisition
Per MPI rank memory allocation (min/avg/max) = 4.588 | 4.588 | 4.588 Mbytes
Step Temp E_pair E_mol TotEng Press 
 3800000    209.27727            0            0    3.1190789    1.7822525 
 3900000    113.68303            0            0    1.6943376   0.96815039 
 4000000    112.65702            0            0    1.6790459   0.95941265 
 4100000    137.51244            0            0    2.0494923     1.171087 
 4200000    155.46029            0            0     2.316988    1.3239349 
 4300000     116.7405            0            0    1.7399063   0.99418848 
 4400000    100.35828            0            0    1.4957448   0.85467378 
 4500000    192.06191            0            0    2.8625004    1.6356426 
 4600000    95.687811            0            0    1.4261359   0.81489901 
 4700000    133.76636            0            0    1.9936605    1.1391845 
 4800000    172.69352            0            0    2.5738328     1.470697 
Loop time of 4.18681 on 1 procs for 1000000 steps with 6 atoms

Performance: 41272.479 ns/day, 0.001 hours/ns, 238845.364 timesteps/s
98.9% CPU use with 1 MPI tasks x 1 OpenMP threads

MPI task timing breakdown:
Section |  min time  |  avg time  |  max time  |%varavg| %total
---------------------------------------------------------------
Pair    | 0.034752   | 0.034752   | 0.034752   |   0.0 |  0.83
Neigh   | 0.0094718  | 0.0094718  | 0.0094718  |   0.0 |  0.23
Comm    | 0.086362   | 0.086362   | 0.086362   |   0.0 |  2.06
Output  | 0.00020622 | 0.00020622 | 0.00020622 |   0.0 |  0.00
Modify  | 3.971      | 3.971      | 3.971      |   0.0 | 94.85
Other   |            | 0.08499    |            |       |  2.03

Nlocal:        6.00000 ave           6 max           6 min
Histogram: 1 0 0 0 0 0 0 0 0 0
Nghost:        3.00000 ave           3 max           3 min
Histogram: 1 0 0 0 0 0 0 0 0 0
Neighs:         0.00000 ave           0 max           0 min
Histogram: 1 0 0 0 0 0 0 0 0 0

Total # of neighbors = 0
Ave neighs/atom = 0.0000000
Neighbor list builds = 4474
Dangerous builds = 0
unfix myat1
next a
jump SELF loop
variable xdes equal ${a}-25
variable xdes equal 5-25
variable xave equal xcm(topull,x)
fix mytth topull spring tether ${k} ${xdes} 0 0 0
fix mytth topull spring tether 0.15 ${xdes} 0 0 0
fix mytth topull spring tether 0.15 -20 0 0 0
run 200000 # equilibrate
Per MPI rank memory allocation (min/avg/max) = 4.588 | 4.588 | 4.588 Mbytes
Step Temp E_pair E_mol TotEng Press 
 4800000    172.69352            0            0    2.5738328     1.470697 
 4900000    93.434526            0            0    1.3925529   0.79570953 
 5000000    158.58068            0            0    2.3634944    1.3505089 
Loop time of 0.796601 on 1 procs for 200000 steps with 6 atoms

Performance: 43384.340 ns/day, 0.001 hours/ns, 251066.782 timesteps/s
100.0% CPU use with 1 MPI tasks x 1 OpenMP threads

MPI task timing breakdown:
Section |  min time  |  avg time  |  max time  |%varavg| %total
---------------------------------------------------------------
Pair    | 0.0073531  | 0.0073531  | 0.0073531  |   0.0 |  0.92
Neigh   | 0.0016908  | 0.0016908  | 0.0016908  |   0.0 |  0.21
Comm    | 0.014069   | 0.014069   | 0.014069   |   0.0 |  1.77
Output  | 6.44e-05   | 6.44e-05   | 6.44e-05   |   0.0 |  0.01
Modify  | 0.75702    | 0.75702    | 0.75702    |   0.0 | 95.03
Other   |            | 0.0164     |            |       |  2.06

Nlocal:        6.00000 ave           6 max           6 min
Histogram: 1 0 0 0 0 0 0 0 0 0
Nghost:        10.0000 ave          10 max          10 min
Histogram: 1 0 0 0 0 0 0 0 0 0
Neighs:        1.00000 ave           1 max           1 min
Histogram: 1 0 0 0 0 0 0 0 0 0

Total # of neighbors = 1
Ave neighs/atom = 0.16666667
Neighbor list builds = 897
Dangerous builds = 0
fix myat1 all ave/time 10 10 100 v_xave v_xdes file position.${a}.dat
fix myat1 all ave/time 10 10 100 v_xave v_xdes file position.5.dat
run 1000000 # data aquisition
Per MPI rank memory allocation (min/avg/max) = 4.588 | 4.588 | 4.588 Mbytes
Step Temp E_pair E_mol TotEng Press 
 5000000    158.58068            0            0    2.3634944    1.3505089 
 5100000    177.62753            0            0    2.6473697    1.5127162 
 5200000    201.93624            0            0    3.0096679    1.7197346 
 5300000     198.5723            0            0    2.9595315    1.6910866 
 5400000    153.56596            0            0    2.2887549    1.3078024 
 5500000    156.63174            0            0    2.3344474    1.3339113 
 5600000     138.3028            0            0    2.0612719    1.1778179 
 5700000    167.98837            0            0    2.5037071    1.4306269 
 5800000    161.28743            0            0     2.403836    1.3735602 
 5900000    190.70883            0            0     2.842334    1.6241195 
 6000000    93.495361            0            0    1.3934596   0.79622761 
Loop time of 4.20046 on 1 procs for 1000000 steps with 6 atoms

Performance: 41138.386 ns/day, 0.001 hours/ns, 238069.365 timesteps/s
99.0% CPU use with 1 MPI tasks x 1 OpenMP threads

MPI task timing breakdown:
Section |  min time  |  avg time  |  max time  |%varavg| %total
---------------------------------------------------------------
Pair    | 0.035133   | 0.035133   | 0.035133   |   0.0 |  0.84
Neigh   | 0.009416   | 0.009416   | 0.009416   |   0.0 |  0.22
Comm    | 0.082442   | 0.082442   | 0.082442   |   0.0 |  1.96
Output  | 0.00016113 | 0.00016113 | 0.00016113 |   0.0 |  0.00
Modify  | 3.9876     | 3.9876     | 3.9876     |   0.0 | 94.93
Other   |            | 0.0857     |            |       |  2.04

Nlocal:        6.00000 ave           6 max           6 min
Histogram: 1 0 0 0 0 0 0 0 0 0
Nghost:        7.00000 ave           7 max           7 min
Histogram: 1 0 0 0 0 0 0 0 0 0
Neighs:         0.00000 ave           0 max           0 min
Histogram: 1 0 0 0 0 0 0 0 0 0

Total # of neighbors = 0
Ave neighs/atom = 0.0000000
Neighbor list builds = 4487
Dangerous builds = 0
unfix myat1
next a
jump SELF loop
variable xdes equal ${a}-25
variable xdes equal 6-25
variable xave equal xcm(topull,x)
fix mytth topull spring tether ${k} ${xdes} 0 0 0
fix mytth topull spring tether 0.15 ${xdes} 0 0 0
fix mytth topull spring tether 0.15 -19 0 0 0
run 200000 # equilibrate
Per MPI rank memory allocation (min/avg/max) = 4.588 | 4.588 | 4.588 Mbytes
Step Temp E_pair E_mol TotEng Press 
 6000000    93.495361            0            0    1.3934596   0.79622761 
 6100000    159.19047            0            0    2.3725828     1.355702 
 6200000    116.01741            0            0    1.7291294    0.9880305 
Loop time of 0.810192 on 1 procs for 200000 steps with 6 atoms

Performance: 42656.561 ns/day, 0.001 hours/ns, 246855.099 timesteps/s
100.0% CPU use with 1 MPI tasks x 1 OpenMP threads

MPI task timing breakdown:
Section |  min time  |  avg time  |  max time  |%varavg| %total
---------------------------------------------------------------
Pair    | 0.0069999  | 0.0069999  | 0.0069999  |   0.0 |  0.86
Neigh   | 0.0017426  | 0.0017426  | 0.0017426  |   0.0 |  0.22
Comm    | 0.017011   | 0.017011   | 0.017011   |   0.0 |  2.10
Output  | 2.472e-05  | 2.472e-05  | 2.472e-05  |   0.0 |  0.00
Modify  | 0.76766    | 0.76766    | 0.76766    |   0.0 | 94.75
Other   |            | 0.01676    |            |       |  2.07

Nlocal:        6.00000 ave           6 max           6 min
Histogram: 1 0 0 0 0 0 0 0 0 0
Nghost:        9.00000 ave           9 max           9 min
Histogram: 1 0 0 0 0 0 0 0 0 0
Neighs:         0.00000 ave           0 max           0 min
Histogram: 1 0 0 0 0 0 0 0 0 0

Total # of neighbors = 0
Ave neighs/atom = 0.0000000
Neighbor list builds = 889
Dangerous builds = 0
fix myat1 all ave/time 10 10 100 v_xave v_xdes file position.${a}.dat
fix myat1 all ave/time 10 10 100 v_xave v_xdes file position.6.dat
run 1000000 # data aquisition
Per MPI rank memory allocation (min/avg/max) = 4.588 | 4.588 | 4.588 Mbytes
Step Temp E_pair E_mol TotEng Press 
 6200000    116.01741            0            0    1.7291294    0.9880305 
 6300000    151.17925            0            0    2.2531831    1.2874766 
 6400000    179.79591            0            0    2.6796873    1.5311826 
 6500000    149.53914            0            0    2.2287389    1.2735091 
 6600000    135.68958            0            0    2.0223243    1.1555631 
 6700000    160.90201            0            0    2.3980917    1.3702779 
 6800000    164.16444            0            0    2.4467151    1.3980615 
 6900000    217.00196            0            0    3.2342081    1.8480377 
 7000000    188.59307            0            0    2.8108006    1.6061012 
 7100000    131.26322            0            0    1.9563537    1.1178673 
 7200000    174.92551            0            0    2.6070986    1.4897051 
Loop time of 4.28341 on 1 procs for 1000000 steps with 6 atoms

Performance: 40341.673 ns/day, 0.001 hours/ns, 233458.755 timesteps/s
99.0% CPU use with 1 MPI tasks x 1 OpenMP threads

MPI task timing breakdown:
Section |  min time  |  avg time  |  max time  |%varavg| %total
---------------------------------------------------------------
Pair    | 0.035407   | 0.035407   | 0.035407   |   0.0 |  0.83
Neigh   | 0.008976   | 0.008976   | 0.008976   |   0.0 |  0.21
Comm    | 0.081949   | 0.081949   | 0.081949   |   0.0 |  1.91
Output  | 0.0001375  | 0.0001375  | 0.0001375  |   0.0 |  0.00
Modify  | 4.0702     | 4.0702     | 4.0702     |   0.0 | 95.02
Other   |            | 0.08678    |            |       |  2.03

Nlocal:        6.00000 ave           6 max           6 min
Histogram: 1 0 0 0 0 0 0 0 0 0
Nghost:        5.00000 ave           5 max           5 min
Histogram: 1 0 0 0 0 0 0 0 0 0
Neighs:         0.00000 ave           0 max           0 min
Histogram: 1 0 0 0 0 0 0 0 0 0

Total # of neighbors = 0
Ave neighs/atom = 0.0000000
Neighbor list builds = 4460
Dangerous builds = 0
unfix myat1
next a
jump SELF loop
variable xdes equal ${a}-25
variable xdes equal 7-25
variable xave equal xcm(topull,x)
fix mytth topull spring tether ${k} ${xdes} 0 0 0
fix mytth topull spring tether 0.15 ${xdes} 0 0 0
fix mytth topull spring tether 0.15 -18 0 0 0
run 200000 # equilibrate
Per MPI rank memory allocation (min/avg/max) = 4.588 | 4.588 | 4.588 Mbytes
Step Temp E_pair E_mol TotEng Press 
 7200000    174.92551            0            0    2.6070986    1.4897051 
 7300000    47.277006            0            0   0.70461888   0.40262166 
 7400000    137.86238            0            0    2.0547078    1.1740671 
Loop time of 0.819659 on 1 procs for 200000 steps with 6 atoms

Performance: 42163.871 ns/day, 0.001 hours/ns, 244003.885 timesteps/s
100.0% CPU use with 1 MPI tasks x 1 OpenMP threads

MPI task timing breakdown:
Section |  min time  |  avg time  |  max time  |%varavg| %total
---------------------------------------------------------------
Pair    | 0.0070649  | 0.0070649  | 0.0070649  |   0.0 |  0.86
Neigh   | 0.0017498  | 0.0017498  | 0.0017498  |   0.0 |  0.21
Comm    | 0.015329   | 0.015329   | 0.015329   |   0.0 |  1.87
Output  | 1.7759e-05 | 1.7759e-05 | 1.7759e-05 |   0.0 |  0.00
Modify  | 0.77856    | 0.77856    | 0.77856    |   0.0 | 94.99
Other   |            | 0.01694    |            |       |  2.07

Nlocal:        6.00000 ave           6 max           6 min
Histogram: 1 0 0 0 0 0 0 0 0 0
Nghost:        1.00000 ave           1 max           1 min
Histogram: 1 0 0 0 0 0 0 0 0 0
Neighs:         0.00000 ave           0 max           0 min
Histogram: 1 0 0 0 0 0 0 0 0 0

Total # of neighbors = 0
Ave neighs/atom = 0.0000000
Neighbor list builds = 893
Dangerous builds = 0
fix myat1 all ave/time 10 10 100 v_xave v_xdes file position.${a}.dat
fix myat1 all ave/time 10 10 100 v_xave v_xdes file position.7.dat
run 1000000 # data aquisition
Per MPI rank memory allocation (min/avg/max) = 4.588 | 4.588 | 4.588 Mbytes
Step Temp E_pair E_mol TotEng Press 
 7400000    137.86238            0            0    2.0547078    1.1740671 
 7500000    161.28392            0            0    2.4037836    1.3735302 
 7600000    195.76007            0            0     2.917618     1.667137 
 7700000    190.58354            0            0    2.8404667    1.6230525 
 7800000    96.565208            0            0    1.4392127   0.82237112 
 7900000    135.45945            0            0    2.0188944    1.1536032 
 8000000    103.59803            0            0    1.5440303   0.88226424 
 8100000     71.32566            0            0    1.0630412   0.60742543 
 8200000    110.42984            0            0    1.6458519   0.94044545 
 8300000    117.29762            0            0    1.7482096   0.99893303 
 8400000    86.754463            0            0    1.2929929    0.7388206 
Loop time of 4.19537 on 1 procs for 1000000 steps with 6 atoms

Performance: 41188.282 ns/day, 0.001 hours/ns, 238358.112 timesteps/s
98.9% CPU use with 1 MPI tasks x 1 OpenMP threads

MPI task timing breakdown:
Section |  min time  |  avg time  |  max time  |%varavg| %total
---------------------------------------------------------------
Pair    | 0.03485    | 0.03485    | 0.03485    |   0.0 |  0.83
Neigh   | 0.0089317  | 0.0089317  | 0.0089317  |   0.0 |  0.21
Comm    | 0.081658   | 0.081658   | 0.081658   |   0.0 |  1.95
Output  | 0.00020031 | 0.00020031 | 0.00020031 |   0.0 |  0.00
Modify  | 3.9841     | 3.9841     | 3.9841     |   0.0 | 94.96
Other   |            | 0.08567    |            |       |  2.04

Nlocal:        6.00000 ave           6 max           6 min
Histogram: 1 0 0 0 0 0 0 0 0 0
Nghost:        5.00000 ave           5 max           5 min
Histogram: 1 0 0 0 0 0 0 0 0 0
Neighs:         0.00000 ave           0 max           0 min
Histogram: 1 0 0 0 0 0 0 0 0 0

Total # of neighbors = 0
Ave neighs/atom = 0.0000000
Neighbor list builds = 4440
Dangerous builds = 0
unfix myat1
next a
jump SELF loop
variable xdes equal ${a}-25
variable xdes equal 8-25
variable xave equal xcm(topull,x)
fix mytth topull spring tether ${k} ${xdes} 0 0 0
fix mytth topull spring tether 0.15 ${xdes} 0 0 0
fix mytth topull spring tether 0.15 -17 0 0 0
run 200000 # equilibrate
Per MPI rank memory allocation (min/avg/max) = 4.588 | 4.588 | 4.588 Mbytes
Step Temp E_pair E_mol TotEng Press 
 8400000    86.754463            0            0    1.2929929    0.7388206 
 8500000    139.75502            0            0    2.0829158    1.1901853 
 8600000    145.79051            0            0    2.1728691    1.2415849 
Loop time of 0.81067 on 1 procs for 200000 steps with 6 atoms

Performance: 42631.384 ns/day, 0.001 hours/ns, 246709.400 timesteps/s
100.0% CPU use with 1 MPI tasks x 1 OpenMP threads

MPI task timing breakdown:
Section |  min time  |  avg time  |  max time  |%varavg| %total
---------------------------------------------------------------
Pair    | 0.0072579  | 0.0072579  | 0.0072579  |   0.0 |  0.90
Neigh   | 0.0017218  | 0.0017218  | 0.0017218  |   0.0 |  0.21
Comm    | 0.016202   | 0.016202   | 0.016202   |   0.0 |  2.00
Output  | 1.899e-05  | 1.899e-05  | 1.899e-05  |   0.0 |  0.00
Modify  | 0.76873    | 0.76873    | 0.76873    |   0.0 | 94.83
Other   |            | 0.01674    |            |       |  2.06

Nlocal:        6.00000 ave           6 max           6 min
Histogram: 1 0 0 0 0 0 0 0 0 0
Nghost:        4.00000 ave           4 max           4 min
Histogram: 1 0 0 0 0 0 0 0 0 0
Neighs:         0.00000 ave           0 max           0 min
Histogram: 1 0 0 0 0 0 0 0 0 0

Total # of neighbors = 0
Ave neighs/atom = 0.0000000
Neighbor list builds = 886
Dangerous builds = 0
fix myat1 all ave/time 10 10 100 v_xave v_xdes file position.${a}.dat
fix myat1 all ave/time 10 10 100 v_xave v_xdes file position.8.dat
run 1000000 # data aquisition
Per MPI rank memory allocation (min/avg/max) = 4.588 | 4.588 | 4.588 Mbytes
Step Temp E_pair E_mol TotEng Press 
 8600000    145.79051            0            0    2.1728691    1.2415849 
 8700000    141.97175            0            0    2.1159541    1.2090635 
 8800000    125.46511            0            0    1.8699383    1.0684892 
 8900000    104.48931            0            0    1.5573139   0.88985454 
 9000000    152.68347            0            0    2.2756021    1.3002869 
 9100000    188.22846            0            0    2.8053665    1.6029961 
 9200000    216.04074            0            0    3.2198821    1.8398517 
 9300000    68.691923            0            0    1.0237879   0.58499593 
 9400000     109.2199            0            0    1.6278189   0.93014132 
 9500000    186.01912            0            0    2.7724383    1.5841809 
 9600000    179.74391            0            0    2.6789123    1.5307397 
Loop time of 4.27779 on 1 procs for 1000000 steps with 6 atoms

Performance: 40394.725 ns/day, 0.001 hours/ns, 233765.769 timesteps/s
99.2% CPU use with 1 MPI tasks x 1 OpenMP threads

MPI task timing breakdown:
Section |  min time  |  avg time  |  max time  |%varavg| %total
---------------------------------------------------------------
Pair    | 0.035071   | 0.035071   | 0.035071   |   0.0 |  0.82
Neigh   | 0.0089787  | 0.0089787  | 0.0089787  |   0.0 |  0.21
Comm    | 0.082767   | 0.082767   | 0.082767   |   0.0 |  1.93
Output  | 0.00014987 | 0.00014987 | 0.00014987 |   0.0 |  0.00
Modify  | 4.0646     | 4.0646     | 4.0646     |   0.0 | 95.02
Other   |            | 0.08619    |            |       |  2.01

Nlocal:        6.00000 ave           6 max           6 min
Histogram: 1 0 0 0 0 0 0 0 0 0
Nghost:        6.00000 ave           6 max           6 min
Histogram: 1 0 0 0 0 0 0 0 0 0
Neighs:         0.00000 ave           0 max           0 min
Histogram: 1 0 0 0 0 0 0 0 0 0

Total # of neighbors = 0
Ave neighs/atom = 0.0000000
Neighbor list builds = 4441
Dangerous builds = 0
unfix myat1
next a
jump SELF loop
variable xdes equal ${a}-25
variable xdes equal 9-25
variable xave equal xcm(topull,x)
fix mytth topull spring tether ${k} ${xdes} 0 0 0
fix mytth topull spring tether 0.15 ${xdes} 0 0 0
fix mytth topull spring tether 0.15 -16 0 0 0
run 200000 # equilibrate
Per MPI rank memory allocation (min/avg/max) = 4.588 | 4.588 | 4.588 Mbytes
Step Temp E_pair E_mol TotEng Press 
 9600000    179.74391            0            0    2.6789123    1.5307397 
 9700000    111.64456            0            0    1.6639561   0.95079026 
 9800000    161.77911            0            0    2.4111639    1.3777474 
Loop time of 0.855122 on 1 procs for 200000 steps with 6 atoms

Performance: 40415.266 ns/day, 0.001 hours/ns, 233884.639 timesteps/s
100.0% CPU use with 1 MPI tasks x 1 OpenMP threads

MPI task timing breakdown:
Section |  min time  |  avg time  |  max time  |%varavg| %total
---------------------------------------------------------------
Pair    | 0.0075363  | 0.0075363  | 0.0075363  |   0.0 |  0.88
Neigh   | 0.0018451  | 0.0018451  | 0.0018451  |   0.0 |  0.22
Comm    | 0.015803   | 0.015803   | 0.015803   |   0.0 |  1.85
Output  | 1.8405e-05 | 1.8405e-05 | 1.8405e-05 |   0.0 |  0.00
Modify  | 0.81232    | 0.81232    | 0.81232    |   0.0 | 94.99
Other   |            | 0.0176     |            |       |  2.06

Nlocal:        6.00000 ave           6 max           6 min
Histogram: 1 0 0 0 0 0 0 0 0 0
Nghost:        7.00000 ave           7 max           7 min
Histogram: 1 0 0 0 0 0 0 0 0 0
Neighs:        1.00000 ave           1 max           1 min
Histogram: 1 0 0 0 0 0 0 0 0 0

Total # of neighbors = 1
Ave neighs/atom = 0.16666667
Neighbor list builds = 896
Dangerous builds = 0
fix myat1 all ave/time 10 10 100 v_xave v_xdes file position.${a}.dat
fix myat1 all ave/time 10 10 100 v_xave v_xdes file position.9.dat
run 1000000 # data aquisition
Per MPI rank memory allocation (min/avg/max) = 4.588 | 4.588 | 4.588 Mbytes
Step Temp E_pair E_mol TotEng Press 
 9800000    161.77911            0            0    2.4111639    1.3777474 
 9900000    175.06709            0            0    2.6092087    1.4909109 
10000000    129.38397            0            0    1.9283452    1.1018631 
10100000    159.05167            0            0    2.3705141      1.35452 
10200000    216.20601            0            0    3.2223453    1.8412592 
10300000    153.68566   0.10275621            0     2.393295    2.1972637 
10400000    131.53849            0            0    1.9604563    1.1202115 
10500000    270.85447            0            0    4.0368286    2.3066578 
10600000    236.21351            0            0     3.520538    2.0116476 
10700000    179.33776            0            0     2.672859    1.5272809 
10800000    299.31128            0            0    4.4609504    2.5490025 
Loop time of 4.31364 on 1 procs for 1000000 steps with 6 atoms

Performance: 40058.935 ns/day, 0.001 hours/ns, 231822.541 timesteps/s
98.7% CPU use with 1 MPI tasks x 1 OpenMP threads

MPI task timing breakdown:
Section |  min time  |  avg time  |  max time  |%varavg| %total
---------------------------------------------------------------
Pair    | 0.035729   | 0.035729   | 0.035729   |   0.0 |  0.83
Neigh   | 0.0092303  | 0.0092303  | 0.0092303  |   0.0 |  0.21
Comm    | 0.085957   | 0.085957   | 0.085957   |   0.0 |  1.99
Output  | 0.00012385 | 0.00012385 | 0.00012385 |   0.0 |  0.00
Modify  | 4.0952     | 4.0952     | 4.0952     |   0.0 | 94.94
Other   |            | 0.08743    |            |       |  2.03

Nlocal:        6.00000 ave           6 max           6 min
Histogram: 1 0 0 0 0 0 0 0 0 0
Nghost:        8.00000 ave           8 max           8 min
Histogram: 1 0 0 0 0 0 0 0 0 0
Neighs:         0.00000 ave           0 max           0 min
Histogram: 1 0 0 0 0 0 0 0 0 0

Total # of neighbors = 0
Ave neighs/atom = 0.0000000
Neighbor list builds = 4473
Dangerous builds = 0
unfix myat1
next a
jump SELF loop
variable xdes equal ${a}-25
variable xdes equal 10-25
variable xave equal xcm(topull,x)
fix mytth topull spring tether ${k} ${xdes} 0 0 0
fix mytth topull spring tether 0.15 ${xdes} 0 0 0
fix mytth topull spring tether 0.15 -15 0 0 0
run 200000 # equilibrate
Per MPI rank memory allocation (min/avg/max) = 4.588 | 4.588 | 4.588 Mbytes
Step Temp E_pair E_mol TotEng Press 
10800000    299.31128            0            0    4.4609504    2.5490025 
10900000    116.77195            0            0     1.740375    0.9944563 
11000000    134.21465            0            0    2.0003418    1.1430022 
Loop time of 0.812325 on 1 procs for 200000 steps with 6 atoms

Performance: 42544.563 ns/day, 0.001 hours/ns, 246206.959 timesteps/s
100.0% CPU use with 1 MPI tasks x 1 OpenMP threads

MPI task timing breakdown:
Section |  min time  |  avg time  |  max time  |%varavg| %total
---------------------------------------------------------------
Pair    | 0.0067541  | 0.0067541  | 0.0067541  |   0.0 |  0.83
Neigh   | 0.001711   | 0.001711   | 0.001711   |   0.0 |  0.21
Comm    | 0.016129   | 0.016129   | 0.016129   |   0.0 |  1.99
Output  | 5.6316e-05 | 5.6316e-05 | 5.6316e-05 |   0.0 |  0.01
Modify  | 0.77092    | 0.77092    | 0.77092    |   0.0 | 94.90
Other   |            | 0.01676    |            |       |  2.06

Nlocal:        6.00000 ave           6 max           6 min
Histogram: 1 0 0 0 0 0 0 0 0 0
Nghost:        9.00000 ave           9 max           9 min
Histogram: 1 0 0 0 0 0 0 0 0 0
Neighs:         0.00000 ave           0 max           0 min
Histogram: 1 0 0 0 0 0 0 0 0 0

Total # of neighbors = 0
Ave neighs/atom = 0.0000000
Neighbor list builds = 899
Dangerous builds = 0
fix myat1 all ave/time 10 10 100 v_xave v_xdes file position.${a}.dat
fix myat1 all ave/time 10 10 100 v_xave v_xdes file position.10.dat
run 1000000 # data aquisition
Per MPI rank memory allocation (min/avg/max) = 4.588 | 4.588 | 4.588 Mbytes
Step Temp E_pair E_mol TotEng Press 
11000000    134.21465            0            0    2.0003418    1.1430022 
11100000    124.90736            0            0    1.8616256    1.0637393 
11200000    86.066716            0            0    1.2827427   0.73296359 
11300000     105.2197            0            0    1.5681996   0.89607469 
11400000    124.74214            0            0    1.8591632    1.0623323 
11500000    192.07134            0            0     2.862641    1.6357229 
11600000    117.55968            0            0    1.7521153    1.0011648 
11700000    215.62133            0            0    3.2136311    1.8362799 
11800000    192.55843            0            0    2.8699005    1.6398711 
11900000    159.05435            0            0     2.370554    1.3545428 
12000000    180.90417            0            0    2.6962048    1.5406208 
Loop time of 4.22584 on 1 procs for 1000000 steps with 6 atoms

Performance: 40891.269 ns/day, 0.001 hours/ns, 236639.290 timesteps/s
99.2% CPU use with 1 MPI tasks x 1 OpenMP threads

MPI task timing breakdown:
Section |  min time  |  avg time  |  max time  |%varavg| %total
---------------------------------------------------------------
Pair    | 0.036517   | 0.036517   | 0.036517   |   0.0 |  0.86
Neigh   | 0.0087247  | 0.0087247  | 0.0087247  |   0.0 |  0.21
Comm    | 0.080305   | 0.080305   | 0.080305   |   0.0 |  1.90
Output  | 0.00012032 | 0.00012032 | 0.00012032 |   0.0 |  0.00
Modify  | 4.0147     | 4.0147     | 4.0147     |   0.0 | 95.00
Other   |            | 0.0855     |            |       |  2.02

Nlocal:        6.00000 ave           6 max           6 min
Histogram: 1 0 0 0 0 0 0 0 0 0
Nghost:        2.00000 ave           2 max           2 min
Histogram: 1 0 0 0 0 0 0 0 0 0
Neighs:         0.00000 ave           0 max           0 min
Histogram: 1 0 0 0 0 0 0 0 0 0

Total # of neighbors = 0
Ave neighs/atom = 0.0000000
Neighbor list builds = 4454
Dangerous builds = 0
unfix myat1
next a
jump SELF loop
variable xdes equal ${a}-25
variable xdes equal 11-25
variable xave equal xcm(topull,x)
fix mytth topull spring tether ${k} ${xdes} 0 0 0
fix mytth topull spring tether 0.15 ${xdes} 0 0 0
fix mytth topull spring tether 0.15 -14 0 0 0
run 200000 # equilibrate
Per MPI rank memory allocation (min/avg/max) = 4.588 | 4.588 | 4.588 Mbytes
Step Temp E_pair E_mol TotEng Press 
12000000    180.90417            0            0    2.6962048    1.5406208 
12100000    139.45379            0            0    2.0784263      1.18762 
12200000    147.19773            0            0    2.1938423    1.2535691 
Loop time of 0.825686 on 1 procs for 200000 steps with 6 atoms

Performance: 41856.126 ns/day, 0.001 hours/ns, 242222.954 timesteps/s
100.0% CPU use with 1 MPI tasks x 1 OpenMP threads

MPI task timing breakdown:
Section |  min time  |  avg time  |  max time  |%varavg| %total
---------------------------------------------------------------
Pair    | 0.007064   | 0.007064   | 0.007064   |   0.0 |  0.86
Neigh   | 0.0017635  | 0.0017635  | 0.0017635  |   0.0 |  0.21
Comm    | 0.016704   | 0.016704   | 0.016704   |   0.0 |  2.02
Output  | 2.1099e-05 | 2.1099e-05 | 2.1099e-05 |   0.0 |  0.00
Modify  | 0.78312    | 0.78312    | 0.78312    |   0.0 | 94.85
Other   |            | 0.01701    |            |       |  2.06

Nlocal:        6.00000 ave           6 max           6 min
Histogram: 1 0 0 0 0 0 0 0 0 0
Nghost:        7.00000 ave           7 max           7 min
Histogram: 1 0 0 0 0 0 0 0 0 0
Neighs:         0.00000 ave           0 max           0 min
Histogram: 1 0 0 0 0 0 0 0 0 0

Total # of neighbors = 0
Ave neighs/atom = 0.0000000
Neighbor list builds = 892
Dangerous builds = 0
fix myat1 all ave/time 10 10 100 v_xave v_xdes file position.${a}.dat
fix myat1 all ave/time 10 10 100 v_xave v_xdes file position.11.dat
run 1000000 # data aquisition
Per MPI rank memory allocation (min/avg/max) = 4.588 | 4.588 | 4.588 Mbytes
Step Temp E_pair E_mol TotEng Press 
12200000    147.19773            0            0    2.1938423    1.2535691 
12300000    109.09086            0            0    1.6258956    0.9290424 
12400000    184.34666            0            0    2.7475119    1.5699378 
12500000    126.11836            0            0    1.8796744    1.0740525 
12600000    64.337731            0            0   0.95889278   0.54791465 
12700000    109.84673            0            0    1.6371612   0.93547958 
12800000    135.18998            0            0    2.0148783    1.1513084 
12900000    168.83155            0            0     2.516274    1.4378076 
13000000    134.89735            0            0    2.0105169    1.1488163 
13100000    56.681554            0            0   0.84478474   0.48271292 
13200000    182.75095            0            0    2.7237293    1.5563484 
Loop time of 4.51014 on 1 procs for 1000000 steps with 6 atoms

Performance: 38313.690 ns/day, 0.001 hours/ns, 221722.741 timesteps/s
98.9% CPU use with 1 MPI tasks x 1 OpenMP threads

MPI task timing breakdown:
Section |  min time  |  avg time  |  max time  |%varavg| %total
---------------------------------------------------------------
Pair    | 0.036931   | 0.036931   | 0.036931   |   0.0 |  0.82
Neigh   | 0.009872   | 0.009872   | 0.009872   |   0.0 |  0.22
Comm    | 0.092385   | 0.092385   | 0.092385   |   0.0 |  2.05
Output  | 0.00014681 | 0.00014681 | 0.00014681 |   0.0 |  0.00
Modify  | 4.2785     | 4.2785     | 4.2785     |   0.0 | 94.86
Other   |            | 0.09228    |            |       |  2.05

Nlocal:        6.00000 ave           6 max           6 min
Histogram: 1 0 0 0 0 0 0 0 0 0
Nghost:        7.00000 ave           7 max           7 min
Histogram: 1 0 0 0 0 0 0 0 0 0
Neighs:         0.00000 ave           0 max           0 min
Histogram: 1 0 0 0 0 0 0 0 0 0

Total # of neighbors = 0
Ave neighs/atom = 0.0000000
Neighbor list builds = 4490
Dangerous builds = 0
unfix myat1
next a
jump SELF loop
variable xdes equal ${a}-25
variable xdes equal 12-25
variable xave equal xcm(topull,x)
fix mytth topull spring tether ${k} ${xdes} 0 0 0
fix mytth topull spring tether 0.15 ${xdes} 0 0 0
fix mytth topull spring tether 0.15 -13 0 0 0
run 200000 # equilibrate
Per MPI rank memory allocation (min/avg/max) = 4.588 | 4.588 | 4.588 Mbytes
Step Temp E_pair E_mol TotEng Press 
13200000    182.75095            0            0    2.7237293    1.5563484 
13300000    118.41045            0            0    1.7647953    1.0084101 
13400000     98.37992            0            0    1.4662593   0.83782562 
Loop time of 0.860003 on 1 procs for 200000 steps with 6 atoms

Performance: 40185.896 ns/day, 0.001 hours/ns, 232557.271 timesteps/s
100.0% CPU use with 1 MPI tasks x 1 OpenMP threads

MPI task timing breakdown:
Section |  min time  |  avg time  |  max time  |%varavg| %total
---------------------------------------------------------------
Pair    | 0.0072474  | 0.0072474  | 0.0072474  |   0.0 |  0.84
Neigh   | 0.0017416  | 0.0017416  | 0.0017416  |   0.0 |  0.20
Comm    | 0.01711    | 0.01711    | 0.01711    |   0.0 |  1.99
Output  | 2.3293e-05 | 2.3293e-05 | 2.3293e-05 |   0.0 |  0.00
Modify  | 0.81603    | 0.81603    | 0.81603    |   0.0 | 94.89
Other   |            | 0.01785    |            |       |  2.08

Nlocal:        6.00000 ave           6 max           6 min
Histogram: 1 0 0 0 0 0 0 0 0 0
Nghost:        3.00000 ave           3 max           3 min
Histogram: 1 0 0 0 0 0 0 0 0 0
Neighs:         0.00000 ave           0 max           0 min
Histogram: 1 0 0 0 0 0 0 0 0 0

Total # of neighbors = 0
Ave neighs/atom = 0.0000000
Neighbor list builds = 885
Dangerous builds = 0
fix myat1 all ave/time 10 10 100 v_xave v_xdes file position.${a}.dat
fix myat1 all ave/time 10 10 100 v_xave v_xdes file position.12.dat
run 1000000 # data aquisition
Per MPI rank memory allocation (min/avg/max) = 4.588 | 4.588 | 4.588 Mbytes
Step Temp E_pair E_mol TotEng Press 
13400000     98.37992            0            0    1.4662593   0.83782562 
13500000    153.53718            0            0    2.2883258    1.3075573 
13600000    76.572384            0            0    1.1412387   0.65210771 
13700000    201.63442            0            0    3.0051695    1.7171643 
13800000    100.82206            0            0     1.502657   0.85862342 
13900000     161.2614            0            0     2.403448    1.3733385 
14000000     139.9833            0            0    2.0863181    1.1921294 
14100000    197.12927            0            0    2.9380246    1.6787974 
14200000    201.85558            0            0    3.0084657    1.7190477 
14300000    226.20952            0            0     3.371438    1.9264513 
14400000    169.67556            0            0    2.5288531    1.4449954 
Loop time of 4.38315 on 1 procs for 1000000 steps with 6 atoms

Performance: 39423.701 ns/day, 0.001 hours/ns, 228146.420 timesteps/s
98.9% CPU use with 1 MPI tasks x 1 OpenMP threads

MPI task timing breakdown:
Section |  min time  |  avg time  |  max time  |%varavg| %total
---------------------------------------------------------------
Pair    | 0.036368   | 0.036368   | 0.036368   |   0.0 |  0.83
Neigh   | 0.0094301  | 0.0094301  | 0.0094301  |   0.0 |  0.22
Comm    | 0.085058   | 0.085058   | 0.085058   |   0.0 |  1.94
Output  | 0.00010303 | 0.00010303 | 0.00010303 |   0.0 |  0.00
Modify  | 4.1626     | 4.1626     | 4.1626     |   0.0 | 94.97
Other   |            | 0.08962    |            |       |  2.04

Nlocal:        6.00000 ave           6 max           6 min
Histogram: 1 0 0 0 0 0 0 0 0 0
Nghost:        4.00000 ave           4 max           4 min
Histogram: 1 0 0 0 0 0 0 0 0 0
Neighs:         0.00000 ave           0 max           0 min
Histogram: 1 0 0 0 0 0 0 0 0 0

Total # of neighbors = 0
Ave neighs/atom = 0.0000000
Neighbor list builds = 4481
Dangerous builds = 0
unfix myat1
next a
jump SELF loop
variable xdes equal ${a}-25
variable xdes equal 13-25
variable xave equal xcm(topull,x)
fix mytth topull spring tether ${k} ${xdes} 0 0 0
fix mytth topull spring tether 0.15 ${xdes} 0 0 0
fix mytth topull spring tether 0.15 -12 0 0 0
run 200000 # equilibrate
Per MPI rank memory allocation (min/avg/max) = 4.588 | 4.588 | 4.588 Mbytes
Step Temp E_pair E_mol TotEng Press 
14400000    169.67556            0            0    2.5288531    1.4449954 
14500000    133.96769            0            0    1.9966611    1.1408991 
14600000    158.81939            0            0    2.3670522    1.3525418 
Loop time of 0.848079 on 1 procs for 200000 steps with 6 atoms

Performance: 40750.901 ns/day, 0.001 hours/ns, 235826.971 timesteps/s
100.0% CPU use with 1 MPI tasks x 1 OpenMP threads

MPI task timing breakdown:
Section |  min time  |  avg time  |  max time  |%varavg| %total
---------------------------------------------------------------
Pair    | 0.0074312  | 0.0074312  | 0.0074312  |   0.0 |  0.88
Neigh   | 0.0017818  | 0.0017818  | 0.0017818  |   0.0 |  0.21
Comm    | 0.014684   | 0.014684   | 0.014684   |   0.0 |  1.73
Output  | 2.1426e-05 | 2.1426e-05 | 2.1426e-05 |   0.0 |  0.00
Modify  | 0.80643    | 0.80643    | 0.80643    |   0.0 | 95.09
Other   |            | 0.01773    |            |       |  2.09

Nlocal:        6.00000 ave           6 max           6 min
Histogram: 1 0 0 0 0 0 0 0 0 0
Nghost:        3.00000 ave           3 max           3 min
Histogram: 1 0 0 0 0 0 0 0 0 0
Neighs:         0.00000 ave           0 max           0 min
Histogram: 1 0 0 0 0 0 0 0 0 0

Total # of neighbors = 0
Ave neighs/atom = 0.0000000
Neighbor list builds = 882
Dangerous builds = 0
fix myat1 all ave/time 10 10 100 v_xave v_xdes file position.${a}.dat
fix myat1 all ave/time 10 10 100 v_xave v_xdes file position.13.dat
run 1000000 # data aquisition
Per MPI rank memory allocation (min/avg/max) = 4.588 | 4.588 | 4.588 Mbytes
Step Temp E_pair E_mol TotEng Press 
14600000    158.81939            0            0    2.3670522    1.3525418 
14700000    70.294102            0            0    1.0476668   0.59864045 
14800000    265.07521            0            0    3.9506943    2.2574404 
14900000    175.34335            0            0    2.6133261    1.4932636 
15000000     153.3222            0            0    2.2851218    1.3057265 
15100000    191.93465            0            0    2.8606037    1.6345588 
15200000     241.5655            0            0    3.6003044    2.0572264 
15300000     130.3636            0            0    1.9429456    1.1102058 
15400000    104.57017            0            0     1.558519   0.89054317 
15500000    178.66766            0            0    2.6628717    1.5215741 
15600000    103.35559            0            0    1.5404168   0.88019951 
Loop time of 4.54668 on 1 procs for 1000000 steps with 6 atoms

Performance: 38005.720 ns/day, 0.001 hours/ns, 219940.507 timesteps/s
98.8% CPU use with 1 MPI tasks x 1 OpenMP threads

MPI task timing breakdown:
Section |  min time  |  avg time  |  max time  |%varavg| %total
---------------------------------------------------------------
Pair    | 0.037908   | 0.037908   | 0.037908   |   0.0 |  0.83
Neigh   | 0.0096343  | 0.0096343  | 0.0096343  |   0.0 |  0.21
Comm    | 0.089548   | 0.089548   | 0.089548   |   0.0 |  1.97
Output  | 0.00012132 | 0.00012132 | 0.00012132 |   0.0 |  0.00
Modify  | 4.3168     | 4.3168     | 4.3168     |   0.0 | 94.94
Other   |            | 0.09265    |            |       |  2.04

Nlocal:        6.00000 ave           6 max           6 min
Histogram: 1 0 0 0 0 0 0 0 0 0
Nghost:        10.0000 ave          10 max          10 min
Histogram: 1 0 0 0 0 0 0 0 0 0
Neighs:         0.00000 ave           0 max           0 min
Histogram: 1 0 0 0 0 0 0 0 0 0

Total # of neighbors = 0
Ave neighs/atom = 0.0000000
Neighbor list builds = 4485
Dangerous builds = 0
unfix myat1
next a
jump SELF loop
variable xdes equal ${a}-25
variable xdes equal 14-25
variable xave equal xcm(topull,x)
fix mytth topull spring tether ${k} ${xdes} 0 0 0
fix mytth topull spring tether 0.15 ${xdes} 0 0 0
fix mytth topull spring tether 0.15 -11 0 0 0
run 200000 # equilibrate
Per MPI rank memory allocation (min/avg/max) = 4.588 | 4.588 | 4.588 Mbytes
Step Temp E_pair E_mol TotEng Press 
15600000    103.35559            0            0    1.5404168   0.88019951 
15700000    184.89872            0            0    2.7557398    1.5746392 
15800000    153.36057            0            0    2.2856937    1.3060533 
Loop time of 0.861677 on 1 procs for 200000 steps with 6 atoms

Performance: 40107.838 ns/day, 0.001 hours/ns, 232105.546 timesteps/s
100.0% CPU use with 1 MPI tasks x 1 OpenMP threads

MPI task timing breakdown:
Section |  min time  |  avg time  |  max time  |%varavg| %total
---------------------------------------------------------------
Pair    | 0.0073373  | 0.0073373  | 0.0073373  |   0.0 |  0.85
Neigh   | 0.0018571  | 0.0018571  | 0.0018571  |   0.0 |  0.22
Comm    | 0.017978   | 0.017978   | 0.017978   |   0.0 |  2.09
Output  | 2.1672e-05 | 2.1672e-05 | 2.1672e-05 |   0.0 |  0.00
Modify  | 0.81646    | 0.81646    | 0.81646    |   0.0 | 94.75
Other   |            | 0.01802    |            |       |  2.09

Nlocal:        6.00000 ave           6 max           6 min
Histogram: 1 0 0 0 0 0 0 0 0 0
Nghost:        10.0000 ave          10 max          10 min
Histogram: 1 0 0 0 0 0 0 0 0 0
Neighs:         0.00000 ave           0 max           0 min
Histogram: 1 0 0 0 0 0 0 0 0 0

Total # of neighbors = 0
Ave neighs/atom = 0.0000000
Neighbor list builds = 886
Dangerous builds = 0
fix myat1 all ave/time 10 10 100 v_xave v_xdes file position.${a}.dat
fix myat1 all ave/time 10 10 100 v_xave v_xdes file position.14.dat
run 1000000 # data aquisition
Per MPI rank memory allocation (min/avg/max) = 4.588 | 4.588 | 4.588 Mbytes
Step Temp E_pair E_mol TotEng Press 
15800000    153.36057            0            0    2.2856937    1.3060533 
15900000    227.07597            0            0    3.3843517    1.9338303 
16000000    114.29954            0            0    1.7035261   0.97340068 
16100000    203.30318            0            0    3.0300407    1.7313758 
16200000    154.32467            0            0    2.3000626    1.3142637 
16300000    116.42522            0            0    1.7352073   0.99150344 
16400000     129.7787            0            0    1.9342283    1.1052247 
16500000     104.8754            0            0    1.5630682   0.89314259 
16600000    102.94498            0            0    1.5342972   0.87670272 
16700000    178.82815            0            0    2.6652638    1.5229409 
16800000    119.10654            0            0    1.7751699    1.0143382 
Loop time of 4.41519 on 1 procs for 1000000 steps with 6 atoms

Performance: 39137.648 ns/day, 0.001 hours/ns, 226491.019 timesteps/s
99.5% CPU use with 1 MPI tasks x 1 OpenMP threads

MPI task timing breakdown:
Section |  min time  |  avg time  |  max time  |%varavg| %total
---------------------------------------------------------------
Pair    | 0.036794   | 0.036794   | 0.036794   |   0.0 |  0.83
Neigh   | 0.0092979  | 0.0092979  | 0.0092979  |   0.0 |  0.21
Comm    | 0.084532   | 0.084532   | 0.084532   |   0.0 |  1.91
Output  | 0.00013038 | 0.00013038 | 0.00013038 |   0.0 |  0.00
Modify  | 4.1947     | 4.1947     | 4.1947     |   0.0 | 95.01
Other   |            | 0.08978    |            |       |  2.03

Nlocal:        6.00000 ave           6 max           6 min
Histogram: 1 0 0 0 0 0 0 0 0 0
Nghost:        5.00000 ave           5 max           5 min
Histogram: 1 0 0 0 0 0 0 0 0 0
Neighs:         0.00000 ave           0 max           0 min
Histogram: 1 0 0 0 0 0 0 0 0 0

Total # of neighbors = 0
Ave neighs/atom = 0.0000000
Neighbor list builds = 4473
Dangerous builds = 0
unfix myat1
next a
jump SELF loop
variable xdes equal ${a}-25
variable xdes equal 15-25
variable xave equal xcm(topull,x)
fix mytth topull spring tether ${k} ${xdes} 0 0 0
fix mytth topull spring tether 0.15 ${xdes} 0 0 0
fix mytth topull spring tether 0.15 -10 0 0 0
run 200000 # equilibrate
Per MPI rank memory allocation (min/avg/max) = 4.588 | 4.588 | 4.588 Mbytes
Step Temp E_pair E_mol TotEng Press 
16800000    119.10654            0            0    1.7751699    1.0143382 
16900000    126.38699            0            0    1.8836781    1.0763402 
17000000    128.73174            0            0    1.9186244    1.0963086 
Loop time of 0.860692 on 1 procs for 200000 steps with 6 atoms

Performance: 40153.743 ns/day, 0.001 hours/ns, 232371.197 timesteps/s
100.0% CPU use with 1 MPI tasks x 1 OpenMP threads

MPI task timing breakdown:
Section |  min time  |  avg time  |  max time  |%varavg| %total
---------------------------------------------------------------
Pair    | 0.007103   | 0.007103   | 0.007103   |   0.0 |  0.83
Neigh   | 0.0017963  | 0.0017963  | 0.0017963  |   0.0 |  0.21
Comm    | 0.016658   | 0.016658   | 0.016658   |   0.0 |  1.94
Output  | 5.1333e-05 | 5.1333e-05 | 5.1333e-05 |   0.0 |  0.01
Modify  | 0.8173     | 0.8173     | 0.8173     |   0.0 | 94.96
Other   |            | 0.01778    |            |       |  2.07

Nlocal:        6.00000 ave           6 max           6 min
Histogram: 1 0 0 0 0 0 0 0 0 0
Nghost:        4.00000 ave           4 max           4 min
Histogram: 1 0 0 0 0 0 0 0 0 0
Neighs:         0.00000 ave           0 max           0 min
Histogram: 1 0 0 0 0 0 0 0 0 0

Total # of neighbors = 0
Ave neighs/atom = 0.0000000
Neighbor list builds = 882
Dangerous builds = 0
fix myat1 all ave/time 10 10 100 v_xave v_xdes file position.${a}.dat
fix myat1 all ave/time 10 10 100 v_xave v_xdes file position.15.dat
run 1000000 # data aquisition
Per MPI rank memory allocation (min/avg/max) = 4.588 | 4.588 | 4.588 Mbytes
Step Temp E_pair E_mol TotEng Press 
17000000    128.73174            0            0    1.9186244    1.0963086 
17100000    101.42224            0            0    1.5116022    0.8637347 
17200000    165.20497            0            0    2.4622231    1.4069228 
17300000    117.63841            0            0    1.7532888    1.0018353 
17400000    134.50543            0            0    2.0046758    1.1454787 
17500000    123.00462            0            0    1.8332671    1.0475351 
17600000    161.34174            0            0    2.4046455    1.3740227 
17700000    98.219835            0            0    1.4638733   0.83646229 
17800000    310.47901            0            0    4.6273947    2.6441093 
17900000    120.73195            0            0     1.799395    1.0281805 
18000000     149.1242            0            0    2.2225546    1.2699754 
Loop time of 4.33736 on 1 procs for 1000000 steps with 6 atoms

Performance: 39839.911 ns/day, 0.001 hours/ns, 230555.039 timesteps/s
99.5% CPU use with 1 MPI tasks x 1 OpenMP threads

MPI task timing breakdown:
Section |  min time  |  avg time  |  max time  |%varavg| %total
---------------------------------------------------------------
Pair    | 0.036025   | 0.036025   | 0.036025   |   0.0 |  0.83
Neigh   | 0.0091708  | 0.0091708  | 0.0091708  |   0.0 |  0.21
Comm    | 0.086785   | 0.086785   | 0.086785   |   0.0 |  2.00
Output  | 0.00013178 | 0.00013178 | 0.00013178 |   0.0 |  0.00
Modify  | 4.1168     | 4.1168     | 4.1168     |   0.0 | 94.92
Other   |            | 0.08844    |            |       |  2.04

Nlocal:        6.00000 ave           6 max           6 min
Histogram: 1 0 0 0 0 0 0 0 0 0
Nghost:        8.00000 ave           8 max           8 min
Histogram: 1 0 0 0 0 0 0 0 0 0
Neighs:         0.00000 ave           0 max           0 min
Histogram: 1 0 0 0 0 0 0 0 0 0

Total # of neighbors = 0
Ave neighs/atom = 0.0000000
Neighbor list builds = 4448
Dangerous builds = 0
unfix myat1
next a
jump SELF loop
variable xdes equal ${a}-25
variable xdes equal 16-25
variable xave equal xcm(topull,x)
fix mytth topull spring tether ${k} ${xdes} 0 0 0
fix mytth topull spring tether 0.15 ${xdes} 0 0 0
fix mytth topull spring tether 0.15 -9 0 0 0
run 200000 # equilibrate
Per MPI rank memory allocation (min/avg/max) = 4.588 | 4.588 | 4.588 Mbytes
Step Temp E_pair E_mol TotEng Press 
18000000     149.1242            0            0    2.2225546    1.2699754 
18100000    154.04022            0            0    2.2958232    1.3118413 
18200000    68.536829            0            0    1.0214763   0.58367511 
Loop time of 0.857297 on 1 procs for 200000 steps with 6 atoms

Performance: 40312.728 ns/day, 0.001 hours/ns, 233291.251 timesteps/s
100.0% CPU use with 1 MPI tasks x 1 OpenMP threads

MPI task timing breakdown:
Section |  min time  |  avg time  |  max time  |%varavg| %total
---------------------------------------------------------------
Pair    | 0.0069985  | 0.0069985  | 0.0069985  |   0.0 |  0.82
Neigh   | 0.001852   | 0.001852   | 0.001852   |   0.0 |  0.22
Comm    | 0.016117   | 0.016117   | 0.016117   |   0.0 |  1.88
Output  | 2.4013e-05 | 2.4013e-05 | 2.4013e-05 |   0.0 |  0.00
Modify  | 0.8145     | 0.8145     | 0.8145     |   0.0 | 95.01
Other   |            | 0.0178     |            |       |  2.08

Nlocal:        6.00000 ave           6 max           6 min
Histogram: 1 0 0 0 0 0 0 0 0 0
Nghost:        10.0000 ave          10 max          10 min
Histogram: 1 0 0 0 0 0 0 0 0 0
Neighs:         0.00000 ave           0 max           0 min
Histogram: 1 0 0 0 0 0 0 0 0 0

Total # of neighbors = 0
Ave neighs/atom = 0.0000000
Neighbor list builds = 893
Dangerous builds = 0
fix myat1 all ave/time 10 10 100 v_xave v_xdes file position.${a}.dat
fix myat1 all ave/time 10 10 100 v_xave v_xdes file position.16.dat
run 1000000 # data aquisition
Per MPI rank memory allocation (min/avg/max) = 4.588 | 4.588 | 4.588 Mbytes
Step Temp E_pair E_mol TotEng Press 
18200000    68.536829            0            0    1.0214763   0.58367511 
18300000    156.18729            0            0    2.3278233    1.3301263 
18400000    115.30853            0            0    1.7185642   0.98199352 
18500000    158.87183            0            0    2.3678338    1.3529884 
18600000    351.29323  0.042462441            0    5.2781544     3.481927 
18700000    187.44219            0            0    2.7936479    1.5963001 
18800000    216.28305            0            0    3.2234935    1.8419153 
18900000    122.29923            0            0    1.8227538    1.0415278 
19000000    270.87581            0            0    4.0371467    2.3068396 
19100000    157.23043            0            0    2.3433703    1.3390099 
19200000    93.119585            0            0     1.387859   0.79302742 
Loop time of 4.35451 on 1 procs for 1000000 steps with 6 atoms

Performance: 39682.998 ns/day, 0.001 hours/ns, 229646.979 timesteps/s
99.3% CPU use with 1 MPI tasks x 1 OpenMP threads

MPI task timing breakdown:
Section |  min time  |  avg time  |  max time  |%varavg| %total
---------------------------------------------------------------
Pair    | 0.036754   | 0.036754   | 0.036754   |   0.0 |  0.84
Neigh   | 0.0092725  | 0.0092725  | 0.0092725  |   0.0 |  0.21
Comm    | 0.088207   | 0.088207   | 0.088207   |   0.0 |  2.03
Output  | 0.00011714 | 0.00011714 | 0.00011714 |   0.0 |  0.00
Modify  | 4.1311     | 4.1311     | 4.1311     |   0.0 | 94.87
Other   |            | 0.08905    |            |       |  2.05

Nlocal:        6.00000 ave           6 max           6 min
Histogram: 1 0 0 0 0 0 0 0 0 0
Nghost:        11.0000 ave          11 max          11 min
Histogram: 1 0 0 0 0 0 0 0 0 0
Neighs:         0.00000 ave           0 max           0 min
Histogram: 1 0 0 0 0 0 0 0 0 0

Total # of neighbors = 0
Ave neighs/atom = 0.0000000
Neighbor list builds = 4453
Dangerous builds = 0
unfix myat1
next a
jump SELF loop
variable xdes equal ${a}-25
variable xdes equal 17-25
variable xave equal xcm(topull,x)
fix mytth topull spring tether ${k} ${xdes} 0 0 0
fix mytth topull spring tether 0.15 ${xdes} 0 0 0
fix mytth topull spring tether 0.15 -8 0 0 0
run 200000 # equilibrate
Per MPI rank memory allocation (min/avg/max) = 4.588 | 4.588 | 4.588 Mbytes
Step Temp E_pair E_mol TotEng Press 
19200000    93.119585            0            0     1.387859   0.79302742 
19300000    134.89321            0            0    2.0104551     1.148781 
19400000    77.256693            0            0    1.1514376   0.65793545 
Loop time of 0.856128 on 1 procs for 200000 steps with 6 atoms

Performance: 40367.782 ns/day, 0.001 hours/ns, 233609.849 timesteps/s
100.0% CPU use with 1 MPI tasks x 1 OpenMP threads

MPI task timing breakdown:
Section |  min time  |  avg time  |  max time  |%varavg| %total
---------------------------------------------------------------
Pair    | 0.0070377  | 0.0070377  | 0.0070377  |   0.0 |  0.82
Neigh   | 0.0018709  | 0.0018709  | 0.0018709  |   0.0 |  0.22
Comm    | 0.017894   | 0.017894   | 0.017894   |   0.0 |  2.09
Output  | 2.1003e-05 | 2.1003e-05 | 2.1003e-05 |   0.0 |  0.00
Modify  | 0.81165    | 0.81165    | 0.81165    |   0.0 | 94.80
Other   |            | 0.01765    |            |       |  2.06

Nlocal:        6.00000 ave           6 max           6 min
Histogram: 1 0 0 0 0 0 0 0 0 0
Nghost:        4.00000 ave           4 max           4 min
Histogram: 1 0 0 0 0 0 0 0 0 0
Neighs:         0.00000 ave           0 max           0 min
Histogram: 1 0 0 0 0 0 0 0 0 0

Total # of neighbors = 0
Ave neighs/atom = 0.0000000
Neighbor list builds = 910
Dangerous builds = 0
fix myat1 all ave/time 10 10 100 v_xave v_xdes file position.${a}.dat
fix myat1 all ave/time 10 10 100 v_xave v_xdes file position.17.dat
run 1000000 # data aquisition
Per MPI rank memory allocation (min/avg/max) = 4.588 | 4.588 | 4.588 Mbytes
Step Temp E_pair E_mol TotEng Press 
19400000    77.256693            0            0    1.1514376   0.65793545 
19500000    111.61235            0            0     1.663476   0.95051595 
19600000     193.2105            0            0     2.879619    1.6454243 
19700000    144.64999            0            0    2.1558707     1.231872 
19800000    139.86476            0            0    2.0845513    1.1911198 
19900000    151.04167            0            0    2.2511327     1.286305 
20000000    132.85001            0            0    1.9800032    1.1313807 
20100000    100.03172            0            0    1.4908778   0.85189272 
20200000    140.80686            0            0    2.0985925     1.199143 
20300000    204.00229            0            0    3.0404604    1.7373296 
20400000    197.96155            0            0    2.9504288    1.6858852 
Loop time of 4.31401 on 1 procs for 1000000 steps with 6 atoms

Performance: 40055.565 ns/day, 0.001 hours/ns, 231803.038 timesteps/s
99.2% CPU use with 1 MPI tasks x 1 OpenMP threads

MPI task timing breakdown:
Section |  min time  |  avg time  |  max time  |%varavg| %total
---------------------------------------------------------------
Pair    | 0.036047   | 0.036047   | 0.036047   |   0.0 |  0.84
Neigh   | 0.0089915  | 0.0089915  | 0.0089915  |   0.0 |  0.21
Comm    | 0.079432   | 0.079432   | 0.079432   |   0.0 |  1.84
Output  | 0.00014415 | 0.00014415 | 0.00014415 |   0.0 |  0.00
Modify  | 4.1014     | 4.1014     | 4.1014     |   0.0 | 95.07
Other   |            | 0.08803    |            |       |  2.04

Nlocal:        6.00000 ave           6 max           6 min
Histogram: 1 0 0 0 0 0 0 0 0 0
Nghost:        2.00000 ave           2 max           2 min
Histogram: 1 0 0 0 0 0 0 0 0 0
Neighs:         0.00000 ave           0 max           0 min
Histogram: 1 0 0 0 0 0 0 0 0 0

Total # of neighbors = 0
Ave neighs/atom = 0.0000000
Neighbor list builds = 4461
Dangerous builds = 0
unfix myat1
next a
jump SELF loop
variable xdes equal ${a}-25
variable xdes equal 18-25
variable xave equal xcm(topull,x)
fix mytth topull spring tether ${k} ${xdes} 0 0 0
fix mytth topull spring tether 0.15 ${xdes} 0 0 0
fix mytth topull spring tether 0.15 -7 0 0 0
run 200000 # equilibrate
Per MPI rank memory allocation (min/avg/max) = 4.588 | 4.588 | 4.588 Mbytes
Step Temp E_pair E_mol TotEng Press 
20400000    197.96155            0            0    2.9504288    1.6858852 
20500000    129.58367            0            0    1.9313215    1.1035638 
20600000    148.81143            0            0     2.217893    1.2673117 
Loop time of 0.856415 on 1 procs for 200000 steps with 6 atoms

Performance: 40354.270 ns/day, 0.001 hours/ns, 233531.655 timesteps/s
100.0% CPU use with 1 MPI tasks x 1 OpenMP threads

MPI task timing breakdown:
Section |  min time  |  avg time  |  max time  |%varavg| %total
---------------------------------------------------------------
Pair    | 0.0072613  | 0.0072613  | 0.0072613  |   0.0 |  0.85
Neigh   | 0.0018923  | 0.0018923  | 0.0018923  |   0.0 |  0.22
Comm    | 0.015503   | 0.015503   | 0.015503   |   0.0 |  1.81
Output  | 3.3685e-05 | 3.3685e-05 | 3.3685e-05 |   0.0 |  0.00
Modify  | 0.81393    | 0.81393    | 0.81393    |   0.0 | 95.04
Other   |            | 0.0178     |            |       |  2.08

Nlocal:        6.00000 ave           6 max           6 min
Histogram: 1 0 0 0 0 0 0 0 0 0
Nghost:        9.00000 ave           9 max           9 min
Histogram: 1 0 0 0 0 0 0 0 0 0
Neighs:         0.00000 ave           0 max           0 min
Histogram: 1 0 0 0 0 0 0 0 0 0

Total # of neighbors = 0
Ave neighs/atom = 0.0000000
Neighbor list builds = 895
Dangerous builds = 0
fix myat1 all ave/time 10 10 100 v_xave v_xdes file position.${a}.dat
fix myat1 all ave/time 10 10 100 v_xave v_xdes file position.18.dat
run 1000000 # data aquisition
Per MPI rank memory allocation (min/avg/max) = 4.588 | 4.588 | 4.588 Mbytes
Step Temp E_pair E_mol TotEng Press 
20600000    148.81143            0            0     2.217893    1.2673117 
20700000    303.75295            0            0    4.5271492    2.5868287 
20800000    251.89722  0.039413856            0    3.7937027    2.6123936 
20900000    140.45202            0            0    2.0933039    1.1961211 
21000000    147.76023            0            0    2.2022259    1.2583595 
21100000    205.37066            0            0    3.0608546    1.7489829 
21200000    164.88978            0            0    2.4575256    1.4042386 
21300000    131.57702            0            0    1.9610305    1.1205396 
21400000     253.9797            0            0    3.7853262    2.1629485 
21500000    117.55601            0            0    1.7520606    1.0011335 
21600000    134.18644            0            0    1.9999214     1.142762 
Loop time of 4.45212 on 1 procs for 1000000 steps with 6 atoms

Performance: 38812.933 ns/day, 0.001 hours/ns, 224611.879 timesteps/s
99.4% CPU use with 1 MPI tasks x 1 OpenMP threads

MPI task timing breakdown:
Section |  min time  |  avg time  |  max time  |%varavg| %total
---------------------------------------------------------------
Pair    | 0.037231   | 0.037231   | 0.037231   |   0.0 |  0.84
Neigh   | 0.0096388  | 0.0096388  | 0.0096388  |   0.0 |  0.22
Comm    | 0.085442   | 0.085442   | 0.085442   |   0.0 |  1.92
Output  | 0.00013711 | 0.00013711 | 0.00013711 |   0.0 |  0.00
Modify  | 4.2283     | 4.2283     | 4.2283     |   0.0 | 94.97
Other   |            | 0.09141    |            |       |  2.05

Nlocal:        6.00000 ave           6 max           6 min
Histogram: 1 0 0 0 0 0 0 0 0 0
Nghost:        4.00000 ave           4 max           4 min
Histogram: 1 0 0 0 0 0 0 0 0 0
Neighs:         0.00000 ave           0 max           0 min
Histogram: 1 0 0 0 0 0 0 0 0 0

Total # of neighbors = 0
Ave neighs/atom = 0.0000000
Neighbor list builds = 4482
Dangerous builds = 0
unfix myat1
next a
jump SELF loop
variable xdes equal ${a}-25
variable xdes equal 19-25
variable xave equal xcm(topull,x)
fix mytth topull spring tether ${k} ${xdes} 0 0 0
fix mytth topull spring tether 0.15 ${xdes} 0 0 0
fix mytth topull spring tether 0.15 -6 0 0 0
run 200000 # equilibrate
Per MPI rank memory allocation (min/avg/max) = 4.588 | 4.588 | 4.588 Mbytes
Step Temp E_pair E_mol TotEng Press 
21600000    134.18644            0            0    1.9999214     1.142762 
21700000    106.26028            0            0    1.5837086   0.90493655 
21800000    117.68401            0            0    1.7539684    1.0022236 
Loop time of 0.862495 on 1 procs for 200000 steps with 6 atoms

Performance: 40069.785 ns/day, 0.001 hours/ns, 231885.327 timesteps/s
100.0% CPU use with 1 MPI tasks x 1 OpenMP threads

MPI task timing breakdown:
Section |  min time  |  avg time  |  max time  |%varavg| %total
---------------------------------------------------------------
Pair    | 0.0072732  | 0.0072732  | 0.0072732  |   0.0 |  0.84
Neigh   | 0.0018659  | 0.0018659  | 0.0018659  |   0.0 |  0.22
Comm    | 0.0177     | 0.0177     | 0.0177     |   0.0 |  2.05
Output  | 2.3572e-05 | 2.3572e-05 | 2.3572e-05 |   0.0 |  0.00
Modify  | 0.81784    | 0.81784    | 0.81784    |   0.0 | 94.82
Other   |            | 0.01779    |            |       |  2.06

Nlocal:        6.00000 ave           6 max           6 min
Histogram: 1 0 0 0 0 0 0 0 0 0
Nghost:        4.00000 ave           4 max           4 min
Histogram: 1 0 0 0 0 0 0 0 0 0
Neighs:        1.00000 ave           1 max           1 min
Histogram: 1 0 0 0 0 0 0 0 0 0

Total # of neighbors = 1
Ave neighs/atom = 0.16666667
Neighbor list builds = 903
Dangerous builds = 0
fix myat1 all ave/time 10 10 100 v_xave v_xdes file position.${a}.dat
fix myat1 all ave/time 10 10 100 v_xave v_xdes file position.19.dat
run 1000000 # data aquisition
Per MPI rank memory allocation (min/avg/max) = 4.588 | 4.588 | 4.588 Mbytes
Step Temp E_pair E_mol TotEng Press 
21800000    117.68401            0            0    1.7539684    1.0022236 
21900000    97.611471            0            0    1.4548063   0.83128133 
22000000    169.64183            0            0    2.5283504    1.4447081 
22100000    130.08931            0            0    1.9388577      1.10787 
22200000    179.58213            0            0     2.676501     1.529362 
22300000    104.34922            0            0     1.555226   0.88866152 
22400000    101.97394            0            0    1.5198247    0.8684331 
22500000    128.52699            0            0    1.9155727    1.0945648 
22600000    259.73564            0            0     3.871113    2.2119674 
22700000    132.39143            0            0    1.9731685    1.1274753 
22800000    150.98511            0            0    2.2502897    1.2858233 
Loop time of 4.40972 on 1 procs for 1000000 steps with 6 atoms

Performance: 39186.129 ns/day, 0.001 hours/ns, 226771.583 timesteps/s
99.2% CPU use with 1 MPI tasks x 1 OpenMP threads

MPI task timing breakdown:
Section |  min time  |  avg time  |  max time  |%varavg| %total
---------------------------------------------------------------
Pair    | 0.03824    | 0.03824    | 0.03824    |   0.0 |  0.87
Neigh   | 0.009453   | 0.009453   | 0.009453   |   0.0 |  0.21
[...]
Histogram: 1 0 0 0 0 0 0 0 0 0
Nghost:        6.00000 ave           6 max           6 min
Histogram: 1 0 0 0 0 0 0 0 0 0
Neighs:         0.00000 ave           0 max           0 min
Histogram: 1 0 0 0 0 0 0 0 0 0

Total # of neighbors = 0
Ave neighs/atom = 0.0000000
Neighbor list builds = 4476
Dangerous builds = 0
unfix myat1
next a
jump SELF loop
variable xdes equal ${a}-25
variable xdes equal 46-25
variable xave equal xcm(topull,x)
fix mytth topull spring tether ${k} ${xdes} 0 0 0
fix mytth topull spring tether 0.15 ${xdes} 0 0 0
fix mytth topull spring tether 0.15 21 0 0 0
run 200000 # equilibrate
Per MPI rank memory allocation (min/avg/max) = 4.588 | 4.588 | 4.588 Mbytes
Step Temp E_pair E_mol TotEng Press 
54000000    168.75482            0            0    2.5151304    1.4371542 
54100000    39.649626            0            0   0.59094002   0.33766517 
54200000    153.30825            0            0    2.2849138    1.3056077 
Loop time of 0.873281 on 1 procs for 200000 steps with 6 atoms

Performance: 39574.882 ns/day, 0.001 hours/ns, 229021.307 timesteps/s
100.0% CPU use with 1 MPI tasks x 1 OpenMP threads

MPI task timing breakdown:
Section |  min time  |  avg time  |  max time  |%varavg| %total
---------------------------------------------------------------
Pair    | 0.0074967  | 0.0074967  | 0.0074967  |   0.0 |  0.86
Neigh   | 0.0019302  | 0.0019302  | 0.0019302  |   0.0 |  0.22
Comm    | 0.019445   | 0.019445   | 0.019445   |   0.0 |  2.23
Output  | 2.2065e-05 | 2.2065e-05 | 2.2065e-05 |   0.0 |  0.00
Modify  | 0.82642    | 0.82642    | 0.82642    |   0.0 | 94.63
Other   |            | 0.01797    |            |       |  2.06

Nlocal:        6.00000 ave           6 max           6 min
Histogram: 1 0 0 0 0 0 0 0 0 0
Nghost:        15.0000 ave          15 max          15 min
Histogram: 1 0 0 0 0 0 0 0 0 0
Neighs:         0.00000 ave           0 max           0 min
Histogram: 1 0 0 0 0 0 0 0 0 0

Total # of neighbors = 0
Ave neighs/atom = 0.0000000
Neighbor list builds = 902
Dangerous builds = 0
fix myat1 all ave/time 10 10 100 v_xave v_xdes file position.${a}.dat
fix myat1 all ave/time 10 10 100 v_xave v_xdes file position.46.dat
run 1000000 # data aquisition
Per MPI rank memory allocation (min/avg/max) = 4.588 | 4.588 | 4.588 Mbytes
Step Temp E_pair E_mol TotEng Press 
54200000    153.30825            0            0    2.2849138    1.3056077 
54300000    165.42851            0            0    2.4655548    1.4088266 
54400000     137.3795            0            0     2.047511    1.1699548 
54500000    187.84801            0            0    2.7996961    1.5997561 
54600000    273.36686            0            0    4.0742734    2.3280539 
54700000    139.16417            0            0    2.0741098    1.1851535 
54800000    134.80647            0            0    2.0091624    1.1480423 
54900000    122.86079            0            0    1.8311234    1.0463102 
55000000    114.30462            0            0    1.7036017   0.97344392 
55100000    162.00358            0            0    2.4145094     1.379659 
55200000    283.61826            0            0    4.2270609    2.4153572 
Loop time of 4.45508 on 1 procs for 1000000 steps with 6 atoms

Performance: 38787.152 ns/day, 0.001 hours/ns, 224462.685 timesteps/s
99.3% CPU use with 1 MPI tasks x 1 OpenMP threads

MPI task timing breakdown:
Section |  min time  |  avg time  |  max time  |%varavg| %total
---------------------------------------------------------------
Pair    | 0.036831   | 0.036831   | 0.036831   |   0.0 |  0.83
Neigh   | 0.0096618  | 0.0096618  | 0.0096618  |   0.0 |  0.22
Comm    | 0.090129   | 0.090129   | 0.090129   |   0.0 |  2.02
Output  | 0.00012964 | 0.00012964 | 0.00012964 |   0.0 |  0.00
Modify  | 4.2277     | 4.2277     | 4.2277     |   0.0 | 94.90
Other   |            | 0.09066    |            |       |  2.04

Nlocal:        6.00000 ave           6 max           6 min
Histogram: 1 0 0 0 0 0 0 0 0 0
Nghost:        5.00000 ave           5 max           5 min
Histogram: 1 0 0 0 0 0 0 0 0 0
Neighs:         0.00000 ave           0 max           0 min
Histogram: 1 0 0 0 0 0 0 0 0 0

Total # of neighbors = 0
Ave neighs/atom = 0.0000000
Neighbor list builds = 4497
Dangerous builds = 0
unfix myat1
next a
jump SELF loop
variable xdes equal ${a}-25
variable xdes equal 47-25
variable xave equal xcm(topull,x)
fix mytth topull spring tether ${k} ${xdes} 0 0 0
fix mytth topull spring tether 0.15 ${xdes} 0 0 0
fix mytth topull spring tether 0.15 22 0 0 0
run 200000 # equilibrate
Per MPI rank memory allocation (min/avg/max) = 4.588 | 4.588 | 4.588 Mbytes
Step Temp E_pair E_mol TotEng Press 
55200000    283.61826            0            0    4.2270609    2.4153572 
55300000    104.16807            0            0    1.5525261   0.88711879 
55400000    115.77037            0            0    1.7254474   0.98592663 
Loop time of 0.870632 on 1 procs for 200000 steps with 6 atoms

Performance: 39695.287 ns/day, 0.001 hours/ns, 229718.094 timesteps/s
100.0% CPU use with 1 MPI tasks x 1 OpenMP threads

MPI task timing breakdown:
Section |  min time  |  avg time  |  max time  |%varavg| %total
---------------------------------------------------------------
Pair    | 0.007887   | 0.007887   | 0.007887   |   0.0 |  0.91
Neigh   | 0.0019418  | 0.0019418  | 0.0019418  |   0.0 |  0.22
Comm    | 0.017828   | 0.017828   | 0.017828   |   0.0 |  2.05
Output  | 2.3456e-05 | 2.3456e-05 | 2.3456e-05 |   0.0 |  0.00
Modify  | 0.82503    | 0.82503    | 0.82503    |   0.0 | 94.76
Other   |            | 0.01792    |            |       |  2.06

Nlocal:        6.00000 ave           6 max           6 min
Histogram: 1 0 0 0 0 0 0 0 0 0
Nghost:        7.00000 ave           7 max           7 min
Histogram: 1 0 0 0 0 0 0 0 0 0
Neighs:        1.00000 ave           1 max           1 min
Histogram: 1 0 0 0 0 0 0 0 0 0

Total # of neighbors = 1
Ave neighs/atom = 0.16666667
Neighbor list builds = 883
Dangerous builds = 0
fix myat1 all ave/time 10 10 100 v_xave v_xdes file position.${a}.dat
fix myat1 all ave/time 10 10 100 v_xave v_xdes file position.47.dat
run 1000000 # data aquisition
Per MPI rank memory allocation (min/avg/max) = 4.588 | 4.588 | 4.588 Mbytes
Step Temp E_pair E_mol TotEng Press 
55400000    115.77037            0            0    1.7254474   0.98592663 
55500000    142.32799            0            0    2.1212635    1.2120973 
55600000    169.36616            0            0    2.5242417    1.4423604 
55700000     179.4985            0            0    2.6752547    1.5286498 
55800000    142.57911            0            0    2.1250062    1.2142359 
55900000    98.231172            0            0    1.4640423   0.83655884 
56000000    120.51304            0            0    1.7961324    1.0263163 
56100000    181.39936            0            0    2.7035852    1.5448379 
56200000    139.24548            0            0    2.0753217     1.185846 
56300000    140.04871            0            0    2.0872931    1.1926865 
56400000    89.683297            0            0    1.3366444   0.76376322 
Loop time of 4.51907 on 1 procs for 1000000 steps with 6 atoms

Performance: 38237.994 ns/day, 0.001 hours/ns, 221284.689 timesteps/s
98.9% CPU use with 1 MPI tasks x 1 OpenMP threads

MPI task timing breakdown:
Section |  min time  |  avg time  |  max time  |%varavg| %total
---------------------------------------------------------------
Pair    | 0.038869   | 0.038869   | 0.038869   |   0.0 |  0.86
Neigh   | 0.010283   | 0.010283   | 0.010283   |   0.0 |  0.23
Comm    | 0.092443   | 0.092443   | 0.092443   |   0.0 |  2.05
Output  | 0.00015216 | 0.00015216 | 0.00015216 |   0.0 |  0.00
Modify  | 4.2844     | 4.2844     | 4.2844     |   0.0 | 94.81
Other   |            | 0.09293    |            |       |  2.06

Nlocal:        6.00000 ave           6 max           6 min
Histogram: 1 0 0 0 0 0 0 0 0 0
Nghost:        6.00000 ave           6 max           6 min
Histogram: 1 0 0 0 0 0 0 0 0 0
Neighs:         0.00000 ave           0 max           0 min
Histogram: 1 0 0 0 0 0 0 0 0 0

Total # of neighbors = 0
Ave neighs/atom = 0.0000000
Neighbor list builds = 4511
Dangerous builds = 0
unfix myat1
next a
jump SELF loop
variable xdes equal ${a}-25
variable xdes equal 48-25
variable xave equal xcm(topull,x)
fix mytth topull spring tether ${k} ${xdes} 0 0 0
fix mytth topull spring tether 0.15 ${xdes} 0 0 0
fix mytth topull spring tether 0.15 23 0 0 0
run 200000 # equilibrate
Per MPI rank memory allocation (min/avg/max) = 4.588 | 4.588 | 4.588 Mbytes
Step Temp E_pair E_mol TotEng Press 
56400000    89.683297            0            0    1.3366444   0.76376322 
56500000    117.44619            0            0     1.750424    1.0001983 
56600000    130.50088            0            0    1.9449917     1.111375 
Loop time of 0.869588 on 1 procs for 200000 steps with 6 atoms

Performance: 39742.969 ns/day, 0.001 hours/ns, 229994.034 timesteps/s
100.0% CPU use with 1 MPI tasks x 1 OpenMP threads

MPI task timing breakdown:
Section |  min time  |  avg time  |  max time  |%varavg| %total
---------------------------------------------------------------
Pair    | 0.0072037  | 0.0072037  | 0.0072037  |   0.0 |  0.83
Neigh   | 0.0018746  | 0.0018746  | 0.0018746  |   0.0 |  0.22
Comm    | 0.019142   | 0.019142   | 0.019142   |   0.0 |  2.20
Output  | 2.1034e-05 | 2.1034e-05 | 2.1034e-05 |   0.0 |  0.00
Modify  | 0.8233     | 0.8233     | 0.8233     |   0.0 | 94.68
Other   |            | 0.01805    |            |       |  2.08

Nlocal:        6.00000 ave           6 max           6 min
Histogram: 1 0 0 0 0 0 0 0 0 0
Nghost:        6.00000 ave           6 max           6 min
Histogram: 1 0 0 0 0 0 0 0 0 0
Neighs:        1.00000 ave           1 max           1 min
Histogram: 1 0 0 0 0 0 0 0 0 0

Total # of neighbors = 1
Ave neighs/atom = 0.16666667
Neighbor list builds = 887
Dangerous builds = 0
fix myat1 all ave/time 10 10 100 v_xave v_xdes file position.${a}.dat
fix myat1 all ave/time 10 10 100 v_xave v_xdes file position.48.dat
run 1000000 # data aquisition
Per MPI rank memory allocation (min/avg/max) = 4.588 | 4.588 | 4.588 Mbytes
Step Temp E_pair E_mol TotEng Press 
56600000    130.50088            0            0    1.9449917     1.111375 
56700000    149.74667            0            0    2.2318319    1.2752765 
56800000    162.95735            0            0    2.4287246    1.3877816 
56900000    87.634446            0            0    1.3061082   0.74631473 
57000000    141.71746            0            0    2.1121641    1.2068979 
57100000    160.51435            0            0    2.3923139    1.3669764 
57200000    191.13025            0            0    2.8486149    1.6277084 
57300000    173.17897            0            0    2.5810681    1.4748312 
57400000    69.524655            0            0    1.0361989   0.59208766 
57500000    215.40439            0            0    3.2103979    1.8344325 
57600000    153.06338            0            0    2.2812642    1.3035223 
Loop time of 4.41273 on 1 procs for 1000000 steps with 6 atoms

Performance: 39159.432 ns/day, 0.001 hours/ns, 226617.085 timesteps/s
99.5% CPU use with 1 MPI tasks x 1 OpenMP threads

MPI task timing breakdown:
Section |  min time  |  avg time  |  max time  |%varavg| %total
---------------------------------------------------------------
Pair    | 0.037831   | 0.037831   | 0.037831   |   0.0 |  0.86
Neigh   | 0.0095725  | 0.0095725  | 0.0095725  |   0.0 |  0.22
Comm    | 0.093821   | 0.093821   | 0.093821   |   0.0 |  2.13
Output  | 0.00014793 | 0.00014793 | 0.00014793 |   0.0 |  0.00
Modify  | 4.1804     | 4.1804     | 4.1804     |   0.0 | 94.73
Other   |            | 0.09097    |            |       |  2.06

Nlocal:        6.00000 ave           6 max           6 min
Histogram: 1 0 0 0 0 0 0 0 0 0
Nghost:        5.00000 ave           5 max           5 min
Histogram: 1 0 0 0 0 0 0 0 0 0
Neighs:         0.00000 ave           0 max           0 min
Histogram: 1 0 0 0 0 0 0 0 0 0

Total # of neighbors = 0
Ave neighs/atom = 0.0000000
Neighbor list builds = 4447
Dangerous builds = 0
unfix myat1
next a
jump SELF loop
variable xdes equal ${a}-25
variable xdes equal 49-25
variable xave equal xcm(topull,x)
fix mytth topull spring tether ${k} ${xdes} 0 0 0
fix mytth topull spring tether 0.15 ${xdes} 0 0 0
fix mytth topull spring tether 0.15 24 0 0 0
run 200000 # equilibrate
Per MPI rank memory allocation (min/avg/max) = 4.588 | 4.588 | 4.588 Mbytes
Step Temp E_pair E_mol TotEng Press 
57600000    153.06338            0            0    2.2812642    1.3035223 
57700000    161.63789            0            0    2.4090593    1.3765448 
57800000    272.04118            0            0    4.0545154    2.3167641 
Loop time of 0.85805 on 1 procs for 200000 steps with 6 atoms

Performance: 40277.356 ns/day, 0.001 hours/ns, 233086.552 timesteps/s
100.0% CPU use with 1 MPI tasks x 1 OpenMP threads

MPI task timing breakdown:
Section |  min time  |  avg time  |  max time  |%varavg| %total
---------------------------------------------------------------
Pair    | 0.0076902  | 0.0076902  | 0.0076902  |   0.0 |  0.90
Neigh   | 0.0018174  | 0.0018174  | 0.0018174  |   0.0 |  0.21
Comm    | 0.016838   | 0.016838   | 0.016838   |   0.0 |  1.96
Output  | 1.0469e-05 | 1.0469e-05 | 1.0469e-05 |   0.0 |  0.00
Modify  | 0.81375    | 0.81375    | 0.81375    |   0.0 | 94.84
Other   |            | 0.01795    |            |       |  2.09

Nlocal:        6.00000 ave           6 max           6 min
Histogram: 1 0 0 0 0 0 0 0 0 0
Nghost:        4.00000 ave           4 max           4 min
Histogram: 1 0 0 0 0 0 0 0 0 0
Neighs:         0.00000 ave           0 max           0 min
Histogram: 1 0 0 0 0 0 0 0 0 0

Total # of neighbors = 0
Ave neighs/atom = 0.0000000
Neighbor list builds = 867
Dangerous builds = 0
fix myat1 all ave/time 10 10 100 v_xave v_xdes file position.${a}.dat
fix myat1 all ave/time 10 10 100 v_xave v_xdes file position.49.dat
run 1000000 # data aquisition
Per MPI rank memory allocation (min/avg/max) = 4.588 | 4.588 | 4.588 Mbytes
Step Temp E_pair E_mol TotEng Press 
57800000    272.04118            0            0    4.0545154    2.3167641 
57900000    128.38374            0            0    1.9134377    1.0933449 
58000000    59.301898            0            0   0.88383846   0.50502835 
58100000    178.60483            0            0    2.6619354    1.5210391 
58200000    78.958944            0            0    1.1768081    0.6724322 
58300000    72.311398            0            0    1.0777327   0.61582019 
58400000    169.04939            0            0    2.5195206    1.4396628 
58500000    174.88027            0            0    2.6064244    1.4893199 
58600000    174.18448            0            0    2.5960542    1.4833943 
58700000    170.41121            0            0    2.5398172    1.4512603 
58800000    150.72878            0            0    2.2464693    1.2836403 
Loop time of 4.41773 on 1 procs for 1000000 steps with 6 atoms

Performance: 39115.078 ns/day, 0.001 hours/ns, 226360.407 timesteps/s
99.1% CPU use with 1 MPI tasks x 1 OpenMP threads

MPI task timing breakdown:
Section |  min time  |  avg time  |  max time  |%varavg| %total
---------------------------------------------------------------
Pair    | 0.03823    | 0.03823    | 0.03823    |   0.0 |  0.87
Neigh   | 0.0094595  | 0.0094595  | 0.0094595  |   0.0 |  0.21
Comm    | 0.086077   | 0.086077   | 0.086077   |   0.0 |  1.95
Output  | 8.6758e-05 | 8.6758e-05 | 8.6758e-05 |   0.0 |  0.00
Modify  | 4.1934     | 4.1934     | 4.1934     |   0.0 | 94.92
Other   |            | 0.09045    |            |       |  2.05

Nlocal:        6.00000 ave           6 max           6 min
Histogram: 1 0 0 0 0 0 0 0 0 0
Nghost:        13.0000 ave          13 max          13 min
Histogram: 1 0 0 0 0 0 0 0 0 0
Neighs:         0.00000 ave           0 max           0 min
Histogram: 1 0 0 0 0 0 0 0 0 0

Total # of neighbors = 0
Ave neighs/atom = 0.0000000
Neighbor list builds = 4488
Dangerous builds = 0
unfix myat1
next a
jump SELF loop
variable xdes equal ${a}-25
variable xdes equal 50-25
variable xave equal xcm(topull,x)
fix mytth topull spring tether ${k} ${xdes} 0 0 0
fix mytth topull spring tether 0.15 ${xdes} 0 0 0
fix mytth topull spring tether 0.15 25 0 0 0
run 200000 # equilibrate
Per MPI rank memory allocation (min/avg/max) = 4.588 | 4.588 | 4.588 Mbytes
Step Temp E_pair E_mol TotEng Press 
58800000    150.72878            0            0    2.2464693    1.2836403 
58900000    194.54404            0            0    2.8994942     1.656781 
59000000    117.36544            0            0    1.7492205   0.99951063 
Loop time of 0.86575 on 1 procs for 200000 steps with 6 atoms

Performance: 39919.135 ns/day, 0.001 hours/ns, 231013.513 timesteps/s
100.0% CPU use with 1 MPI tasks x 1 OpenMP threads

MPI task timing breakdown:
Section |  min time  |  avg time  |  max time  |%varavg| %total
---------------------------------------------------------------
Pair    | 0.0076469  | 0.0076469  | 0.0076469  |   0.0 |  0.88
Neigh   | 0.0018743  | 0.0018743  | 0.0018743  |   0.0 |  0.22
Comm    | 0.019324   | 0.019324   | 0.019324   |   0.0 |  2.23
Output  | 3.0801e-05 | 3.0801e-05 | 3.0801e-05 |   0.0 |  0.00
Modify  | 0.81875    | 0.81875    | 0.81875    |   0.0 | 94.57
Other   |            | 0.01812    |            |       |  2.09

Nlocal:        6.00000 ave           6 max           6 min
Histogram: 1 0 0 0 0 0 0 0 0 0
Nghost:        8.00000 ave           8 max           8 min
Histogram: 1 0 0 0 0 0 0 0 0 0
Neighs:        1.00000 ave           1 max           1 min
Histogram: 1 0 0 0 0 0 0 0 0 0

Total # of neighbors = 1
Ave neighs/atom = 0.16666667
Neighbor list builds = 886
Dangerous builds = 0
fix myat1 all ave/time 10 10 100 v_xave v_xdes file position.${a}.dat
fix myat1 all ave/time 10 10 100 v_xave v_xdes file position.50.dat
run 1000000 # data aquisition
Per MPI rank memory allocation (min/avg/max) = 4.588 | 4.588 | 4.588 Mbytes
Step Temp E_pair E_mol TotEng Press 
59000000    117.36544            0            0    1.7492205   0.99951063 
59100000     145.3229            0            0    2.1658998    1.2376026 
59200000    146.05263            0            0    2.1767757    1.2438172 
59300000    77.655115            0            0    1.1573757    0.6613285 
59400000    183.92035            0            0    2.7411581    1.5663072 
59500000     248.9989            0            0    3.7110922    2.1205309 
59600000    198.70319            0            0    2.9614823    1.6922012 
59700000    215.10194            0            0    3.2058902    1.8318567 
59800000    106.05884            0            0    1.5807062   0.90322101 
59900000    145.91368            0            0    2.1747048    1.2426339 
60000000    171.68444            0            0    2.5587936    1.4621035 
Loop time of 4.45359 on 1 procs for 1000000 steps with 6 atoms

Performance: 38800.148 ns/day, 0.001 hours/ns, 224537.891 timesteps/s
99.7% CPU use with 1 MPI tasks x 1 OpenMP threads

MPI task timing breakdown:
Section |  min time  |  avg time  |  max time  |%varavg| %total
---------------------------------------------------------------
Pair    | 0.039309   | 0.039309   | 0.039309   |   0.0 |  0.88
Neigh   | 0.0096424  | 0.0096424  | 0.0096424  |   0.0 |  0.22
Comm    | 0.087297   | 0.087297   | 0.087297   |   0.0 |  1.96
Output  | 0.00012767 | 0.00012767 | 0.00012767 |   0.0 |  0.00
Modify  | 4.2263     | 4.2263     | 4.2263     |   0.0 | 94.90
Other   |            | 0.09091    |            |       |  2.04

Nlocal:        6.00000 ave           6 max           6 min
Histogram: 1 0 0 0 0 0 0 0 0 0
Nghost:        7.00000 ave           7 max           7 min
Histogram: 1 0 0 0 0 0 0 0 0 0
Neighs:         0.00000 ave           0 max           0 min
Histogram: 1 0 0 0 0 0 0 0 0 0

Total # of neighbors = 0
Ave neighs/atom = 0.0000000
Neighbor list builds = 4473
Dangerous builds = 0
unfix myat1
next a
jump SELF loop
Total wall time: 0:04:30
