ITEM: TIMESTEP
0
ITEM: NUMBER OF ATOMS
4948
ITEM: BOX BOUNDS pp pp pp
-1.6160000000000000e+01 1.6160000000000000e+01
-1.6160000000000000e+01 1.6160000000000000e+01
-5.2520000000000003e+01 5.2520000000000003e+01
ITEM: ATOMS id type xs ys zs
2 5 0.0623335 0.0629214 0.0406078
5 5 0.124963 0.000382829 0.0406124
6 5 0.187515 0.0629085 0.0406638
8 5 0.124881 0.0628863 0.0596481
34 5 0.0622965 0.187935 0.0406585
35 5 0.0622876 0.125405 0.0596542
37 5 0.124915 0.125438 0.040646
38 5 0.187455 0.187898 0.0407041
39 5 0.187386 0.125377 0.0597247
40 5 0.124822 0.187854 0.0597186
3 5 0.0623216 0.000316662 0.0596038
7 5 0.187449 0.00032256 0.0596769
44 5 0.249897 0.187837 0.0597858
12 5 0.249936 0.0628409 0.0597501
258 5 0.0622859 0.062856 0.0782423
262 5 0.187301 0.0628174 0.0783438
290 5 0.0622289 0.187769 0.0783645
293 5 0.124755 0.12532 0.0783427
294 5 0.18727 0.187814 0.0784139
261 5 0.124845 0.000286044 0.078246
265 5 0.249825 0.000281022 0.0783946
297 5 0.249829 0.125315 0.0784208
9 5 0.250047 0.000357131 0.040693
41 5 0.250006 0.125398 0.0407211
10 5 0.312505 0.0628568 0.0407402
14 5 0.43743 0.0628337 0.0407991
16 5 0.374896 0.0627901 0.0598167
42 5 0.312508 0.187854 0.040772
43 5 0.312418 0.125316 0.0597966
45 5 0.374986 0.125348 0.0407818
46 5 0.437475 0.187814 0.0408166
47 5 0.437398 0.125288 0.0598552
48 5 0.374931 0.187782 0.0598492
11 5 0.312425 0.000304665 0.0597895
13 5 0.37496 0.000327035 0.0407672
15 5 0.43733 0.00029914 0.0598524
52 5 0.499916 0.187787 0.05988
49 5 0.499905 0.125328 0.0408251
20 5 0.499832 0.0628136 0.0598795
17 5 0.499821 0.000342883 0.0408182
266 5 0.312374 0.0627982 0.0784531
270 5 0.437268 0.062774 0.0785205
298 5 0.312328 0.18772 0.0784793
301 5 0.374843 0.125214 0.078486
302 5 0.437413 0.187727 0.0785234
269 5 0.374828 0.000303548 0.0785061
273 5 0.499747 0.000278197 0.0785318
305 5 0.499824 0.125291 0.0785446
18 5 0.562279 0.0628485 0.0408248
22 5 0.687109 0.0628789 0.0407657
24 5 0.624774 0.062828 0.0598643
50 5 0.562371 0.187819 0.0408392
51 5 0.562353 0.125302 0.0598908
53 5 0.624741 0.125353 0.0408186
54 5 0.687201 0.187858 0.0408006
55 5 0.68728 0.125343 0.0598432
56 5 0.624867 0.187824 0.0598827
19 5 0.562255 0.000321797 0.0598728
21 5 0.624635 0.000359772 0.0407905
23 5 0.687164 0.000331094 0.0598003
28 5 0.749666 0.062848 0.0597691
25 5 0.749518 0.00036191 0.0407042
57 5 0.7496 0.125402 0.0407453
60 5 0.749727 0.187842 0.0598368
274 5 0.562331 0.0627924 0.0785506
278 5 0.687377 0.0627896 0.0784938
306 5 0.562423 0.187816 0.0785324
309 5 0.624942 0.125315 0.0785355
310 5 0.687386 0.187805 0.078551
277 5 0.624799 0.000286388 0.0785116
313 5 0.749815 0.125284 0.0784869
281 5 0.74971 0.000303561 0.078418
1 5 0.999739 0.000376963 0.0405773
4 5 0.999722 0.0628692 0.0596199
33 5 0.999704 0.125448 0.0406295
36 5 0.99971 0.187882 0.0596992
26 5 0.812036 0.0628988 0.0406824
30 5 0.937114 0.0629174 0.040613
32 5 0.874625 0.0628658 0.0596764
58 5 0.812078 0.187902 0.0407335
59 5 0.812156 0.125374 0.0597588
61 5 0.874562 0.125433 0.0406688
62 5 0.937123 0.187929 0.0406746
63 5 0.937153 0.125382 0.0596762
64 5 0.874652 0.187855 0.0597523
29 5 0.874538 0.000364458 0.0406231
27 5 0.812096 0.000316376 0.0596998
31 5 0.937175 0.000323985 0.0596077
289 5 0.99972 0.125325 0.078295
257 5 0.999749 0.000270107 0.0782171
282 5 0.812211 0.0628062 0.078377
286 5 0.937208 0.0628006 0.0782789
314 5 0.812283 0.187787 0.078479
317 5 0.874728 0.125296 0.0783847
318 5 0.937207 0.187784 0.0783837
285 5 0.874706 0.00026127 0.0782773
66 5 0.0623017 0.312784 0.0407056
67 5 0.0622667 0.250323 0.0597378
69 5 0.124873 0.250359 0.040704
70 5 0.187441 0.312753 0.0407345
71 5 0.187368 0.250308 0.0597701
72 5 0.124833 0.312775 0.0597679
98 5 0.0623202 0.437613 0.0406782
99 5 0.0623034 0.375227 0.0597514
101 5 0.124885 0.375177 0.0407121
102 5 0.187442 0.43758 0.0407078
103 5 0.187391 0.375193 0.0597833
104 5 0.12485 0.437654 0.0597457
76 5 0.249927 0.312734 0.0598103
108 5 0.249914 0.437598 0.0597773
73 5 0.249993 0.250315 0.0407525
105 5 0.249991 0.375134 0.040745
322 5 0.0622681 0.312772 0.0784221
325 5 0.12477 0.250266 0.0784054
326 5 0.187344 0.312747 0.0784494
354 5 0.0622659 0.437751 0.0783963
357 5 0.124817 0.375248 0.0784395
358 5 0.187355 0.43768 0.0784389
361 5 0.249897 0.375196 0.0784775
329 5 0.249785 0.250266 0.0784728
77 5 0.375012 0.250271 0.0408082
79 5 0.437458 0.250256 0.0598781
74 5 0.312521 0.312696 0.0407794
75 5 0.312432 0.25027 0.0598429
78 5 0.437513 0.312702 0.0408238
80 5 0.374963 0.312704 0.0598629
106 5 0.312516 0.437575 0.0407518
107 5 0.31246 0.375138 0.0598194
109 5 0.375032 0.375118 0.0407867
110 5 0.437513 0.43761 0.0407917
111 5 0.437478 0.375175 0.0598648
112 5 0.374972 0.437588 0.0598183
84 5 0.499973 0.312753 0.0598961
113 5 0.499976 0.375168 0.0408245
116 5 0.499958 0.437661 0.0598679
81 5 0.499961 0.25028 0.0408365
330 5 0.312392 0.312733 0.0785121
333 5 0.37492 0.2502 0.0785278
334 5 0.437452 0.312726 0.0785395
362 5 0.312398 0.437582 0.0784619
365 5 0.374944 0.375187 0.0785194
366 5 0.437433 0.437647 0.0785209
369 5 0.499928 0.37525 0.0785655
337 5 0.49996 0.250258 0.0785468
82 5 0.562406 0.312753 0.0408372
83 5 0.562427 0.250313 0.0598952
85 5 0.624811 0.250311 0.0408312
86 5 0.687215 0.31277 0.0408171
87 5 0.687303 0.25031 0.0598818
88 5 0.624859 0.312778 0.0599062
114 5 0.562383 0.437653 0.0408161
115 5 0.562418 0.375224 0.0599058
117 5 0.6248 0.375209 0.0408273
118 5 0.687192 0.437683 0.0407999
119 5 0.687262 0.375239 0.0598777
120 5 0.624819 0.437718 0.0598777
89 5 0.749638 0.250332 0.0407851
92 5 0.749729 0.312765 0.0598555
121 5 0.749636 0.375225 0.0407919
124 5 0.749685 0.437728 0.0598366
338 5 0.562442 0.312757 0.078596
341 5 0.624927 0.250287 0.078573
342 5 0.687378 0.312787 0.0785736
370 5 0.562421 0.437779 0.0785664
373 5 0.624901 0.375281 0.0785891
374 5 0.687285 0.437773 0.078535
345 5 0.749832 0.250304 0.0785423
377 5 0.749779 0.375231 0.0785223
95 5 0.937182 0.250332 0.0597526
65 5 0.999707 0.250381 0.0406876
68 5 0.999738 0.312782 0.0597534
97 5 0.999727 0.375199 0.0406974
100 5 0.999758 0.437688 0.0597151
90 5 0.812101 0.312783 0.0407636
91 5 0.812184 0.250312 0.0598177
93 5 0.874593 0.250362 0.0407256
94 5 0.937142 0.312791 0.0407135
96 5 0.874674 0.312779 0.0597924
122 5 0.812083 0.437682 0.0407506
123 5 0.812186 0.375234 0.0598194
125 5 0.874599 0.375221 0.0407313
126 5 0.937148 0.437659 0.040691
127 5 0.937201 0.375234 0.0597546
128 5 0.874677 0.437709 0.0597638
353 5 0.999762 0.375294 0.0784067
321 5 0.99973 0.250276 0.0784049
349 5 0.874744 0.250279 0.0784562
346 5 0.812275 0.312768 0.0785067
350 5 0.93725 0.312789 0.0784334
378 5 0.812247 0.43776 0.0784582
381 5 0.874771 0.375261 0.0784573
382 5 0.937286 0.437748 0.0783898
133 5 0.124888 0.500056 0.0406624
135 5 0.187366 0.500086 0.0597279
131 5 0.0623082 0.500127 0.0596914
130 5 0.0623169 0.562588 0.0406322
134 5 0.187444 0.562564 0.0406613
136 5 0.124838 0.5626 0.0596713
162 5 0.0623544 0.687638 0.0405938
163 5 0.062302 0.625154 0.0596456
165 5 0.124896 0.625109 0.0406249
166 5 0.187461 0.687671 0.0406293
167 5 0.187359 0.625157 0.0596708
168 5 0.124861 0.687694 0.0596452
140 5 0.249864 0.562607 0.0597283
172 5 0.249875 0.687757 0.059693
137 5 0.249981 0.500053 0.0407116
169 5 0.249982 0.62513 0.0406771
389 5 0.124803 0.500188 0.0783825
386 5 0.0622877 0.562635 0.0783134
390 5 0.187261 0.562643 0.0783485
418 5 0.0622639 0.687725 0.0782716
421 5 0.124815 0.625144 0.0782951
422 5 0.187329 0.687733 0.078319
425 5 0.249716 0.625237 0.0783434
393 5 0.249816 0.500098 0.0784089
139 5 0.312413 0.500075 0.0597801
141 5 0.375011 0.500094 0.0407699
143 5 0.437473 0.500109 0.0598281
138 5 0.312494 0.562597 0.0407336
142 5 0.437471 0.56265 0.0407895
144 5 0.374911 0.562638 0.0597997
170 5 0.312493 0.687719 0.0407027
171 5 0.312359 0.625205 0.0597498
173 5 0.374977 0.625171 0.0407591
174 5 0.437415 0.687757 0.0407638
175 5 0.437427 0.625251 0.0598131
176 5 0.374876 0.687811 0.0597733
145 5 0.49995 0.500142 0.0407975
148 5 0.499959 0.562701 0.0598343
177 5 0.49989 0.625219 0.0407816
180 5 0.499863 0.687814 0.0598175
394 5 0.312259 0.562637 0.0783974
397 5 0.374892 0.500051 0.078441
398 5 0.437449 0.562671 0.0784342
426 5 0.31224 0.687879 0.078376
429 5 0.374793 0.625299 0.078393
430 5 0.437348 0.687878 0.0784447
401 5 0.499956 0.500171 0.0785099
433 5 0.499961 0.625318 0.0784712
146 5 0.562349 0.562692 0.0407839
147 5 0.562402 0.500197 0.0598545
149 5 0.624768 0.500167 0.0407898
150 5 0.687141 0.562703 0.0407474
151 5 0.687223 0.500242 0.0598347
152 5 0.624815 0.562751 0.0598261
178 5 0.562259 0.687792 0.040767
179 5 0.562369 0.625279 0.0598252
181 5 0.62471 0.625255 0.0407567
182 5 0.687073 0.687803 0.040724
183 5 0.6872 0.625306 0.0597842
184 5 0.624729 0.687824 0.059808
153 5 0.749595 0.500174 0.0407545
188 5 0.749621 0.687823 0.0597359
185 5 0.749539 0.625246 0.040697
156 5 0.749633 0.562778 0.0597697
405 5 0.62486 0.500291 0.0785333
402 5 0.562457 0.562759 0.0785004
406 5 0.687298 0.56285 0.0784839
434 5 0.562345 0.687849 0.0784916
437 5 0.624877 0.625326 0.0784838
438 5 0.687248 0.68785 0.0784554
409 5 0.74972 0.500327 0.0784699
441 5 0.749742 0.625391 0.0784123
129 5 0.999736 0.500111 0.0406526
132 5 0.999745 0.562657 0.059665
161 5 0.999747 0.625131 0.0406108
155 5 0.812139 0.500229 0.0597708
157 5 0.874584 0.500153 0.0406961
159 5 0.93721 0.500194 0.059702
164 5 0.999759 0.687717 0.0596136
154 5 0.812045 0.562683 0.0406966
158 5 0.937153 0.562638 0.0406401
160 5 0.874655 0.562743 0.0596944
186 5 0.812007 0.68776 0.0406399
187 5 0.812109 0.62531 0.0596961
189 5 0.874572 0.625192 0.0406331
190 5 0.937158 0.687684 0.0405906
191 5 0.937187 0.62522 0.0596433
192 5 0.874632 0.687786 0.0596375
385 5 0.999763 0.500196 0.0783473
417 5 0.999723 0.625227 0.0782801
413 5 0.874761 0.500294 0.0783722
410 5 0.812195 0.562883 0.0783638
414 5 0.937214 0.562765 0.0783247
442 5 0.812241 0.687833 0.0783546
445 5 0.874685 0.625356 0.0783062
446 5 0.937201 0.687831 0.0782517
197 5 0.124942 0.750183 0.0405918
195 5 0.0623355 0.750207 0.0596021
199 5 0.187401 0.750244 0.0596586
194 5 0.0623877 0.812714 0.0405542
198 5 0.187507 0.812754 0.0406125
200 5 0.124899 0.812728 0.0596111
226 5 0.0623826 0.937835 0.0405623
227 5 0.0623477 0.875239 0.0595716
229 5 0.124974 0.875281 0.040579
230 5 0.187531 0.937834 0.0406339
231 5 0.187429 0.875252 0.0596562
232 5 0.124897 0.93777 0.0596168
204 5 0.249904 0.812778 0.0597044
236 5 0.249945 0.937784 0.0597273
453 5 0.124829 0.750264 0.0782842
450 5 0.0622897 0.812744 0.0782233
454 5 0.187316 0.812747 0.0783278
482 5 0.0622889 0.937689 0.0782218
485 5 0.124826 0.875208 0.0782562
486 5 0.18734 0.937725 0.078313
489 5 0.249775 0.875228 0.0783928
457 5 0.249782 0.750295 0.0783722
201 5 0.250005 0.750254 0.0406515
205 5 0.374953 0.750311 0.0407312
207 5 0.437337 0.750344 0.0598061
233 5 0.250034 0.875315 0.0406669
203 5 0.312377 0.750327 0.059737
202 5 0.3125 0.812828 0.040701
206 5 0.437369 0.81286 0.0407699
208 5 0.374851 0.812827 0.0598013
234 5 0.312514 0.937833 0.0407287
235 5 0.312389 0.875294 0.0597759
237 5 0.374948 0.875349 0.0407597
238 5 0.437376 0.937837 0.0407958
239 5 0.437301 0.875313 0.0598541
240 5 0.374862 0.937802 0.0598313
212 5 0.499761 0.81284 0.059844
241 5 0.49977 0.875356 0.0407967
244 5 0.49976 0.937797 0.05987
209 5 0.499804 0.75033 0.0407716
461 5 0.374776 0.750335 0.0784489
458 5 0.312249 0.812768 0.0784391
462 5 0.437255 0.812763 0.0785148
490 5 0.312295 0.937767 0.0784607
493 5 0.374743 0.875257 0.0785049
494 5 0.43725 0.937792 0.0785376
497 5 0.49972 0.875274 0.0785485
465 5 0.499781 0.750331 0.078495
211 5 0.56224 0.750338 0.0598255
213 5 0.624614 0.750334 0.0407522
215 5 0.687112 0.750322 0.0597819
217 5 0.749491 0.750306 0.0406856
210 5 0.562175 0.812853 0.040777
214 5 0.68701 0.81283 0.0407304
216 5 0.624628 0.812827 0.0598202
242 5 0.562185 0.937852 0.0408039
243 5 0.562191 0.875312 0.0598554
245 5 0.624572 0.875345 0.0407668
246 5 0.68703 0.937843 0.0407412
247 5 0.687078 0.875318 0.0597843
248 5 0.624654 0.937815 0.0598324
220 5 0.749579 0.81279 0.0597345
249 5 0.749478 0.875316 0.0406971
252 5 0.749597 0.937823 0.0597431
473 5 0.749704 0.750319 0.0784009
469 5 0.624698 0.750326 0.0784951
466 5 0.562207 0.812796 0.0785258
470 5 0.687146 0.812816 0.0784485
498 5 0.562237 0.937777 0.0785301
501 5 0.624694 0.875303 0.0785083
502 5 0.68717 0.937812 0.0784563
505 5 0.749665 0.875301 0.0783748
193 5 0.999778 0.750175 0.0405575
219 5 0.812117 0.750274 0.0596799
221 5 0.874554 0.750242 0.0405899
223 5 0.937199 0.750266 0.0595894
228 5 0.99978 0.937762 0.0595705
196 5 0.999771 0.812723 0.0595585
225 5 0.999777 0.875274 0.0405374
218 5 0.811987 0.812783 0.0406421
222 5 0.937156 0.812731 0.0405424
224 5 0.874665 0.812747 0.0596179
250 5 0.811985 0.937823 0.0406466
251 5 0.812112 0.875284 0.0596811
253 5 0.874537 0.875279 0.0405879
254 5 0.937134 0.937821 0.0405722
255 5 0.937205 0.875214 0.0595668
256 5 0.874613 0.937767 0.0596266
449 5 0.999736 0.750314 0.0782319
477 5 0.874775 0.750299 0.0782911
481 5 0.999769 0.87516 0.078197
474 5 0.812248 0.812752 0.0783205
478 5 0.937283 0.812761 0.078244
506 5 0.812219 0.93777 0.0783461
509 5 0.874794 0.87521 0.0782662
510 5 0.937254 0.937677 0.0781937
264 5 0.124687 0.0627043 0.0969447
291 5 0.0621587 0.125113 0.0969739
295 5 0.187169 0.125246 0.097021
296 5 0.124647 0.187734 0.0970416
514 5 0.0621332 0.0623706 0.11594
516 5 0.187099 0.0625993 0.115981
530 5 0.0619539 0.187389 0.115978
531 5 0.124594 0.125038 0.115979
532 5 0.186913 0.18766 0.116092
268 5 0.249731 0.0628005 0.0970302
263 5 0.187116 0.000249944 0.0969602
259 5 0.0623253 0.000314587 0.0967864
1286 2 0.152696 0.00841039 0.140085
1309 2 0.144266 0.077932 0.13224
1311 1 0.248195 0.188317 0.138535
517 5 0.249459 0.000407604 0.115999
515 5 0.12444 0.000136444 0.115958
1308 1 0.131292 0.0642276 0.139263
300 5 0.249668 0.18771 0.0971105
533 5 0.249496 0.125127 0.116093
1306 2 0.0842 0.0965262 0.138963
1305 1 0.0639416 0.118124 0.139123
1307 2 0.0797703 0.143122 0.139519
1312 2 0.241748 0.1899 0.129654
1330 2 0.0423792 0.240288 0.131583
1332 1 0.118234 0.185431 0.139394
1334 2 0.100192 0.208901 0.139663
1329 1 0.0570267 0.245467 0.139341
1333 2 0.144665 0.196078 0.141878
1310 2 0.141751 0.0781642 0.146632
1523 2 0.0523402 0.212286 0.166055
271 5 0.43724 0.000311552 0.0972281
272 5 0.374798 0.0628075 0.0972007
299 5 0.312287 0.12521 0.0971376
303 5 0.437239 0.12526 0.0971961
304 5 0.374858 0.187529 0.0971401
518 5 0.31211 0.0627693 0.116179
520 5 0.437312 0.0628638 0.116311
534 5 0.312146 0.18762 0.116135
535 5 0.374802 0.125291 0.116297
536 5 0.437412 0.187751 0.116282
1294 2 0.476157 0.0705809 0.141504
267 5 0.312249 0.000324527 0.0971071
276 5 0.499678 0.0627326 0.0971659
519 5 0.374648 0.00027467 0.116239
308 5 0.499923 0.187797 0.097201
521 5 0.499847 0.000422833 0.116293
1313 2 0.270944 0.206943 0.13963
1318 2 0.473268 0.191843 0.140582
537 5 0.499855 0.125317 0.116067
551 5 0.374785 0.249703 0.116007
1335 1 0.310566 0.24835 0.139808
1314 1 0.425272 0.101107 0.145272
1315 2 0.403402 0.102946 0.139153
1316 2 0.442483 0.124524 0.143516
1317 1 0.481139 0.163623 0.141918
1507 2 0.431333 0.102928 0.164189
1319 2 0.492567 0.16322 0.150324
1336 2 0.312907 0.246824 0.14888
1341 1 0.459578 0.248449 0.142479
1535 2 0.474266 0.24687 0.159429
275 5 0.562289 0.000227963 0.0971826
280 5 0.625024 0.0627529 0.0971554
307 5 0.562444 0.125439 0.0971438
311 5 0.687517 0.125249 0.0972004
312 5 0.624932 0.187777 0.0972277
522 5 0.562371 0.0630582 0.115977
524 5 0.687496 0.0627128 0.116266
538 5 0.562414 0.18755 0.116376
539 5 0.625044 0.125214 0.116159
540 5 0.687522 0.187805 0.116262
279 5 0.687372 0.000278953 0.0971713
1324 2 0.692322 0.118575 0.131047
1298 2 0.557077 0.0466162 0.141044
1293 1 0.504882 0.0698581 0.139297
1296 1 0.585792 0.0413015 0.142561
1323 1 0.690538 0.130025 0.139433
284 5 0.749927 0.0626806 0.0971543
523 5 0.624775 0.00038739 0.11625
1322 2 0.601808 0.0957013 0.142148
1295 2 0.511842 0.098089 0.137564
1325 2 0.661994 0.127215 0.141704
316 5 0.749954 0.18776 0.097199
1320 1 0.607827 0.123577 0.144607
1321 2 0.599798 0.125038 0.153367
1297 2 0.587371 0.0353327 0.151474
1348 2 0.70628 0.177863 0.147254
1347 1 0.710177 0.203696 0.151547
1349 2 0.68291 0.214986 0.152308
1345 2 0.613969 0.211149 0.146701
1344 1 0.626606 0.232906 0.151508
1540 2 0.745732 0.199771 0.165234
513 5 0.999882 0.000161664 0.11565
541 5 0.750166 0.125123 0.116197
260 5 0.999768 0.062795 0.0968689
292 5 0.99969 0.187619 0.0970183
529 5 0.999707 0.124832 0.116072
288 5 0.874805 0.0626321 0.096971
315 5 0.812366 0.125127 0.0971074
319 5 0.937315 0.125148 0.0970004
320 5 0.874858 0.187691 0.0971071
526 5 0.812676 0.0624006 0.116198
528 5 0.93742 0.0623217 0.11591
542 5 0.812571 0.187593 0.116205
543 5 0.874924 0.12483 0.116014
544 5 0.937485 0.187463 0.116093
287 5 0.937283 0.000124897 0.0968414
1352 2 0.85546 0.193439 0.133459
283 5 0.812341 0.000310327 0.0969854
525 5 0.750133 7.65219e-05 0.11618
1281 1 0.978115 0.0313963 0.141666
1350 1 0.877045 0.18459 0.139073
1326 1 0.932441 0.119545 0.139087
1327 2 0.913733 0.0965866 0.139164
1328 2 0.914911 0.143399 0.138809
4929 3 0.99783 0.09789 0.141147
1282 2 0.948732 0.0279711 0.141223
1304 2 0.871459 0.0227335 0.138968
1283 2 0.988896 0.00387079 0.141112
1302 1 0.891778 0.0418375 0.142034
1542 1 0.843664 0.183537 0.163263
1543 2 0.815842 0.190044 0.165661
1351 2 0.864691 0.185089 0.147354
1303 2 0.888354 0.0416456 0.151086
323 5 0.0622252 0.250183 0.0970521
547 5 0.124515 0.250098 0.116168
327 5 0.187155 0.25026 0.0971154
328 5 0.124811 0.312693 0.0970796
355 5 0.0622133 0.375338 0.0970692
359 5 0.187362 0.37522 0.0971208
360 5 0.124771 0.437825 0.0970773
546 5 0.0624155 0.312701 0.11602
548 5 0.187112 0.312737 0.116213
562 5 0.0622056 0.437876 0.116133
563 5 0.124722 0.375351 0.116033
564 5 0.187352 0.437793 0.11613
364 5 0.249885 0.437701 0.0971382
1353 1 0.0337602 0.326707 0.142943
1355 2 0.0610121 0.338287 0.142754
1361 2 0.229917 0.328694 0.1384
1382 2 0.107814 0.458585 0.135524
1380 1 0.125571 0.438522 0.139407
332 5 0.249793 0.312749 0.0971583
549 5 0.249668 0.250259 0.116097
1358 2 0.117726 0.383308 0.141507
565 5 0.249943 0.375163 0.116197
1331 2 0.0503936 0.273515 0.141438
1354 2 0.0193305 0.342753 0.149185
1356 1 0.113414 0.355438 0.14429
1357 2 0.123385 0.355053 0.15287
1381 2 0.133505 0.450789 0.147334
331 5 0.31225 0.250141 0.097113
1359 1 0.25534 0.313597 0.138921
335 5 0.437499 0.250129 0.0971845
336 5 0.374994 0.312678 0.0971691
363 5 0.312425 0.3752 0.0971816
367 5 0.437424 0.375207 0.0972302
368 5 0.374886 0.437664 0.0971773
550 5 0.312672 0.312473 0.116131
552 5 0.437461 0.312394 0.116262
566 5 0.312426 0.437711 0.116242
567 5 0.375004 0.375058 0.116249
568 5 0.437301 0.437903 0.116268
372 5 0.499863 0.437799 0.0972338
1363 2 0.329021 0.393906 0.140715
340 5 0.499869 0.312712 0.0972144
569 5 0.499831 0.375181 0.1163
1360 2 0.276269 0.334475 0.13947
1362 1 0.325139 0.36469 0.141613
1337 2 0.290397 0.269508 0.138343
1340 2 0.372827 0.32084 0.136629
1339 2 0.361612 0.275988 0.138942
1338 1 0.383625 0.29551 0.139984
1343 2 0.43618 0.265634 0.140675
1342 2 0.483019 0.265734 0.140824
1527 1 0.315878 0.255509 0.165641
1529 2 0.33194 0.28036 0.166031
1530 1 0.365444 0.324361 0.163407
1531 2 0.375991 0.312657 0.15569
1364 2 0.333827 0.358775 0.150133
553 5 0.500119 0.250124 0.116245
339 5 0.562465 0.250113 0.0972318
343 5 0.687448 0.25028 0.0972503
344 5 0.625 0.31275 0.097256
371 5 0.5624 0.375379 0.0972362
375 5 0.687435 0.37532 0.0972621
376 5 0.624956 0.437877 0.0972564
554 5 0.562417 0.312794 0.11611
555 5 0.624863 0.250065 0.116304
556 5 0.687461 0.312744 0.116317
570 5 0.56233 0.437953 0.11628
571 5 0.624939 0.37538 0.116294
572 5 0.687618 0.43801 0.116311
1369 2 0.641482 0.319913 0.133139
1366 2 0.55873 0.298671 0.13828
1368 1 0.621533 0.309648 0.139088
380 5 0.749803 0.437766 0.0971349
1393 2 0.676707 0.489309 0.139541
1365 1 0.533872 0.292145 0.142809
348 5 0.749913 0.312804 0.0972438
1370 2 0.62249 0.32883 0.146025
1367 2 0.542023 0.291604 0.151568
1537 2 0.583215 0.259633 0.164545
1346 2 0.624859 0.256663 0.146093
561 5 0.999878 0.375279 0.116185
324 5 0.999755 0.312808 0.0970786
356 5 0.999747 0.437834 0.0970905
545 5 0.999725 0.250223 0.116065
557 5 0.750067 0.25022 0.116299
351 5 0.937283 0.250228 0.0970865
559 5 0.875028 0.250159 0.116183
573 5 0.750053 0.37543 0.116309
347 5 0.812405 0.250263 0.0971872
352 5 0.874873 0.312783 0.0971363
379 5 0.812337 0.375299 0.0971579
383 5 0.937392 0.375354 0.0970991
384 5 0.874861 0.437869 0.0970579
558 5 0.812589 0.31286 0.116241
560 5 0.937385 0.312818 0.116165
574 5 0.812347 0.438131 0.116042
575 5 0.875033 0.375546 0.116093
576 5 0.937256 0.438007 0.116158
1400 2 0.837372 0.474672 0.139258
1375 2 0.835449 0.403974 0.13926
1398 1 0.859084 0.455249 0.1409
1399 2 0.884025 0.470743 0.13971
1374 1 0.818084 0.379991 0.139075
1376 2 0.83499 0.358884 0.135359
1373 2 0.752724 0.390505 0.15978
1371 1 0.75142 0.407685 0.152368
1372 2 0.771836 0.396426 0.146749
4939 3 0.775699 0.466328 0.161778
1379 2 0.94986 0.487285 0.145901
387 5 0.0621994 0.500271 0.0970401
579 5 0.124705 0.500398 0.116081
391 5 0.187315 0.500242 0.0970761
392 5 0.124749 0.562745 0.0970151
419 5 0.0622355 0.625117 0.0969026
423 5 0.187213 0.625175 0.0969981
424 5 0.124792 0.687654 0.0968985
578 5 0.0620401 0.56284 0.116016
580 5 0.187241 0.562842 0.116099
594 5 0.0621529 0.687615 0.115699
595 5 0.124526 0.625288 0.11605
596 5 0.187031 0.687563 0.115991
1406 2 0.0374249 0.645827 0.139144
597 5 0.249769 0.625201 0.116067
1404 1 0.0557986 0.622609 0.13893
1425 1 0.00744744 0.691615 0.139143
1433 2 0.196065 0.724853 0.13529
1405 2 0.0631621 0.619821 0.130145
1431 1 0.176549 0.740354 0.140213
1429 2 0.119951 0.723827 0.140735
396 5 0.249631 0.562713 0.0969991
1426 2 0.0323246 0.707398 0.140074
1428 1 0.0927616 0.71252 0.14171
428 5 0.249674 0.687768 0.0970281
581 5 0.249916 0.500423 0.116153
1402 2 0.00787314 0.588291 0.140936
1432 2 0.186402 0.738206 0.148781
1430 2 0.0973093 0.684167 0.143942
395 5 0.31231 0.50004 0.0970605
399 5 0.43736 0.500215 0.0971253
400 5 0.37482 0.562665 0.0969526
427 5 0.312104 0.625405 0.0969463
431 5 0.437309 0.625328 0.0969867
432 5 0.374691 0.687849 0.0970422
582 5 0.312321 0.562926 0.115751
583 5 0.374827 0.500439 0.116119
584 5 0.437101 0.563218 0.11593
598 5 0.312214 0.68772 0.116067
599 5 0.37446 0.62509 0.115872
600 5 0.437117 0.687186 0.116073
404 5 0.499951 0.562748 0.0970924
585 5 0.499668 0.500602 0.116224
601 5 0.499952 0.625266 0.115972
1385 2 0.275053 0.535639 0.136177
1384 2 0.314804 0.552067 0.141885
1383 1 0.285348 0.554642 0.142408
1407 1 0.302699 0.638688 0.141212
1408 2 0.29534 0.610124 0.140395
1412 2 0.358154 0.650155 0.141549
1413 1 0.461627 0.608006 0.141587
1415 2 0.435462 0.6215 0.142582
1434 1 0.429144 0.732964 0.140872
1414 2 0.480698 0.629996 0.139907
1388 2 0.395079 0.544694 0.139401
1389 1 0.446852 0.523029 0.141379
1387 2 0.37824 0.588396 0.139651
1391 2 0.456566 0.550949 0.140823
1386 1 0.36979 0.560072 0.139078
1438 2 0.476972 0.700373 0.139392
436 5 0.499865 0.687883 0.0971381
1411 2 0.395161 0.678789 0.140883
1390 2 0.453851 0.514494 0.149835
1409 2 0.293727 0.646167 0.149586
1410 1 0.387563 0.65072 0.142611
1435 2 0.428221 0.745418 0.149134
1437 1 0.50195 0.684461 0.139373
1392 1 0.699972 0.507565 0.140038
403 5 0.562435 0.500342 0.0972216
587 5 0.625095 0.500521 0.116296
407 5 0.687362 0.500405 0.0971788
408 5 0.624946 0.562872 0.0971925
435 5 0.562524 0.625336 0.0971365
439 5 0.687416 0.625426 0.0971439
440 5 0.624856 0.687831 0.0971628
586 5 0.562386 0.562942 0.11623
588 5 0.687679 0.563117 0.116201
602 5 0.562457 0.687744 0.116222
603 5 0.625066 0.625363 0.116231
604 5 0.687527 0.687955 0.116136
1416 1 0.629062 0.681873 0.140322
1420 2 0.716198 0.64961 0.137885
1417 2 0.649826 0.660953 0.139433
1445 2 0.729553 0.717812 0.138915
444 5 0.749879 0.687896 0.097075
1418 2 0.607389 0.673402 0.134685
1439 2 0.514335 0.689982 0.147475
1419 1 0.696251 0.629382 0.14046
1441 2 0.662475 0.727004 0.138869
412 5 0.749908 0.563028 0.097093
1394 2 0.688283 0.534694 0.139385
1421 2 0.701818 0.624915 0.149305
1633 2 0.632128 0.689387 0.158258
1440 1 0.682452 0.748821 0.139312
577 5 0.999638 0.500532 0.116126
388 5 0.999717 0.562743 0.0969515
420 5 0.999616 0.687845 0.0968737
593 5 0.999508 0.625411 0.115845
605 5 0.750157 0.62559 0.116151
589 5 0.750153 0.500471 0.11599
411 5 0.812349 0.500477 0.0970186
415 5 0.937301 0.500288 0.0970087
591 5 0.874767 0.500595 0.115969
416 5 0.874677 0.562942 0.0969691
443 5 0.812348 0.625391 0.0970368
447 5 0.937162 0.625423 0.0969186
448 5 0.874874 0.687859 0.0969749
590 5 0.812409 0.562931 0.116169
592 5 0.937088 0.562949 0.115888
606 5 0.81257 0.687945 0.116037
607 5 0.87487 0.625389 0.11603
608 5 0.937364 0.687892 0.116046
1447 2 0.803352 0.728918 0.139576
1377 1 0.934483 0.501638 0.139486
1378 2 0.948085 0.527822 0.1387
1446 1 0.832285 0.732939 0.141078
1401 1 0.980321 0.577431 0.141009
1443 1 0.750495 0.696875 0.139037
1423 2 0.889968 0.660846 0.133321
1396 2 0.757567 0.504996 0.140482
1422 1 0.887545 0.669985 0.141957
1424 2 0.869299 0.693276 0.14155
1427 2 0.987928 0.70504 0.144612
1403 2 0.963781 0.599385 0.144401
1395 1 0.78561 0.504964 0.143413
1397 2 0.793354 0.533547 0.143531
1444 2 0.75432 0.690739 0.147874
1611 1 0.758564 0.673493 0.163558
1612 2 0.784852 0.659947 0.163066
1614 1 0.83937 0.644809 0.16314
1615 2 0.856878 0.652013 0.156133
613 5 0.249455 0.750116 0.116149
455 5 0.187215 0.750253 0.0969998
451 5 0.0621932 0.750363 0.0968657
456 5 0.124719 0.812806 0.0969476
483 5 0.0622347 0.87511 0.0968681
487 5 0.187136 0.875199 0.0970068
488 5 0.124764 0.937711 0.0968724
610 5 0.0622337 0.812758 0.115991
611 5 0.124447 0.750133 0.115878
612 5 0.186914 0.812668 0.116107
626 5 0.0620413 0.937861 0.115621
627 5 0.124481 0.875414 0.116026
628 5 0.186827 0.937832 0.11598
492 5 0.249611 0.937753 0.0970472
1453 2 0.106172 0.902678 0.140055
629 5 0.24937 0.875335 0.116112
1289 2 0.217094 0.953616 0.139603
1450 2 0.0392583 0.944921 0.140567
1452 1 0.0960134 0.930014 0.141645
1454 2 0.119716 0.947476 0.140653
1449 1 0.0102309 0.950584 0.140083
1287 1 0.245033 0.944034 0.138935
460 5 0.249622 0.812723 0.0970911
1285 2 0.163558 0.981381 0.151371
1284 1 0.164835 0.982348 0.142272
617 5 0.499588 0.750059 0.116327
1436 2 0.433973 0.755574 0.135177
1288 2 0.259377 0.966016 0.134714
615 5 0.374685 0.750075 0.116189
459 5 0.312136 0.750297 0.0971059
463 5 0.437257 0.750202 0.097177
464 5 0.37466 0.812658 0.0971621
491 5 0.31208 0.875211 0.0971222
495 5 0.437157 0.875212 0.0971942
496 5 0.374699 0.937782 0.0971764
614 5 0.311981 0.812733 0.116215
616 5 0.437184 0.812587 0.116252
630 5 0.31194 0.937866 0.116098
631 5 0.374433 0.875112 0.116131
632 5 0.437169 0.937711 0.116247
633 5 0.499597 0.87536 0.116173
468 5 0.499694 0.812672 0.0972168
500 5 0.499715 0.937859 0.097208
1291 2 0.350212 0.917277 0.139548
1290 1 0.374669 0.933894 0.139028
1457 2 0.300929 0.865473 0.133324
1458 1 0.431496 0.868863 0.140053
1460 2 0.416483 0.893463 0.137952
1456 2 0.282181 0.902291 0.140115
1455 1 0.305006 0.883451 0.140457
1463 2 0.482668 0.844939 0.139742
1292 2 0.372055 0.953242 0.145881
1648 2 0.306918 0.864094 0.15719
1459 2 0.418589 0.858911 0.147661
1647 1 0.305219 0.85553 0.165897
471 5 0.68727 0.750357 0.0971139
467 5 0.562201 0.750289 0.0972019
619 5 0.624752 0.750274 0.116182
472 5 0.624721 0.812788 0.097178
499 5 0.562216 0.875281 0.0971969
503 5 0.6873 0.875299 0.0971224
504 5 0.624787 0.937829 0.097182
618 5 0.562129 0.81275 0.116254
620 5 0.68745 0.812819 0.116138
634 5 0.562255 0.937789 0.11626
635 5 0.624801 0.875305 0.116175
636 5 0.687417 0.937754 0.116187
1465 2 0.635185 0.843065 0.139289
1464 1 0.625815 0.81497 0.139248
476 5 0.749784 0.812896 0.0970184
508 5 0.749705 0.937745 0.0970338
1462 2 0.522508 0.83071 0.133555
1442 2 0.666436 0.773676 0.138794
1461 1 0.507776 0.830257 0.141459
1654 2 0.509976 0.895436 0.163151
1655 2 0.52363 0.856155 0.156518
1466 2 0.606552 0.813463 0.146155
1653 1 0.529042 0.872886 0.163851
527 5 0.875095 0.999964 0.115896
609 5 0.999867 0.750316 0.115932
625 5 0.999886 0.875378 0.115995
452 5 0.99977 0.812818 0.0969176
475 5 0.812403 0.750351 0.0969856
621 5 0.750036 0.750622 0.115999
484 5 0.999639 0.93759 0.0967994
479 5 0.937345 0.750334 0.0969318
480 5 0.874915 0.812805 0.0969437
507 5 0.81234 0.875166 0.0969349
511 5 0.937407 0.875239 0.0969162
512 5 0.875029 0.937676 0.0968819
622 5 0.812376 0.812869 0.115963
623 5 0.875052 0.750414 0.115954
624 5 0.937388 0.812839 0.116029
637 5 0.750059 0.875299 0.11613
638 5 0.812508 0.937624 0.115734
639 5 0.875041 0.875347 0.115916
640 5 0.937541 0.937811 0.116015
1471 2 0.879761 0.813194 0.131271
1467 1 0.822383 0.888898 0.140117
1470 1 0.865791 0.814612 0.139295
1472 2 0.850352 0.839857 0.138922
1468 2 0.826207 0.917739 0.138413
1448 2 0.835826 0.762343 0.141031
1451 2 0.997267 0.925198 0.142557
1300 2 0.799471 0.990554 0.136883
1299 1 0.825647 0.982288 0.140304
1469 2 0.817994 0.887474 0.149119
1491 1 0.817149 0.976499 0.166397
1301 2 0.821096 0.980574 0.149293
1662 1 0.821092 0.889412 0.166426
1498 2 0.0689764 0.117775 0.189736
1500 1 0.125099 0.12175 0.194892
1501 2 0.117949 0.117402 0.203633
1502 2 0.123707 0.151114 0.193785
1503 1 0.200487 0.0901638 0.204537
1505 2 0.177053 0.0999751 0.199854
1522 2 0.0688386 0.202266 0.179187
1524 1 0.101818 0.20621 0.194034
1525 2 0.114928 0.230161 0.197564
1504 2 0.199652 0.105263 0.212373
1521 1 0.0499525 0.192613 0.172827
1480 2 0.208673 0.0377265 0.209259
1499 2 0.0396526 0.145649 0.182473
1497 1 0.0402662 0.124407 0.18882
1526 2 0.0826621 0.197525 0.200449
1474 2 0.032051 0.0035004 0.20171
1690 2 0.0377792 0.154574 0.204259
1479 1 0.212569 0.0107656 0.212835
1689 1 0.0482451 0.171346 0.211045
1481 2 0.241335 0.00501391 0.211584
1668 1 0.103566 0.0288616 0.223868
1669 2 0.11168 0.00957138 0.21742
1691 2 0.0647831 0.15286 0.216024
1692 1 0.106651 0.113606 0.220169
1693 2 0.132641 0.119177 0.224189
1694 2 0.1022 0.0846538 0.221513