ITEM: TIMESTEP
0
ITEM: NUMBER OF ATOMS
60
ITEM: BOX BOUNDS pp pp pp
-2.5000000000000000e+01 2.5000000000000000e+01
-2.0000000000000000e+01 2.0000000000000000e+01
-2.0000000000000000e+01 2.0000000000000000e+01
ITEM: ATOMS id type xs ys zs
11 1 0.802854 0.0906979 0.0386428
2 1 0.0143913 0.338224 0.0342945
19 1 0.0341456 0.622831 0.0761635
47 1 0.674762 0.796176 0.0254093
38 1 0.671926 0.618177 0.0784758
51 1 0.0872 0.00701411 0.220639
28 1 0.694729 0.339337 0.216781
23 1 0.98552 0.461981 0.198993
60 1 0.870897 0.564202 0.171656
36 1 0.341954 0.687996 0.167781
33 1 0.720127 0.89886 0.160174
3 1 0.755954 0.989332 0.230576
1 1 0.812021 0.955263 0.170913
17 1 0.200038 0.43699 0.302682
24 1 0.94064 0.209844 0.34206
30 1 0.189999 0.23853 0.370077
21 1 0.74313 0.454373 0.308072
53 1 0.970471 0.572592 0.311152
32 1 0.761488 0.637354 0.314526
15 1 0.830804 0.190506 0.451965
20 1 0.315407 0.296622 0.3978
50 1 0.657683 0.442055 0.442266
41 1 0.770894 0.521379 0.414466
22 1 0.760041 0.743624 0.403162
31 1 0.888867 0.805872 0.446433
35 1 0.801408 0.853597 0.438035
37 1 0.92983 0.892413 0.440608
54 1 0.978648 0.0611283 0.463637
25 1 0.0459388 0.262245 0.507211
13 1 0.0241424 0.748469 0.51034
39 1 0.837544 0.736796 0.486771
34 1 0.660243 0.861961 0.499715
56 1 0.220738 0.17193 0.560402
48 1 0.934284 0.281454 0.558962
7 1 0.143108 0.358341 0.603194
44 1 0.252974 0.30945 0.562204
55 1 0.219228 0.107361 0.625502
46 1 0.94881 0.145973 0.635059
6 1 0.363094 0.273602 0.648793
14 1 0.74439 0.930212 0.635646
49 1 0.236953 0.0546994 0.69474
45 1 0.627347 0.105238 0.720725
26 1 0.134918 0.470684 0.719253
27 1 0.259474 0.668603 0.695445
40 1 0.761335 0.669471 0.724423
42 1 0.109902 0.76286 0.715228
58 1 0.329542 0.861799 0.697498
18 1 0.65585 0.90384 0.70805
12 1 0.701504 0.120038 0.795495
16 1 0.902807 0.14717 0.808518
5 1 0.86394 0.252148 0.834791
59 1 0.972216 0.71125 0.821259
10 1 0.160506 0.981268 0.770528
43 1 0.326175 0.0781345 0.907982
57 1 0.115929 0.28875 0.875574
9 1 0.795385 0.650759 0.893367
52 1 0.938702 0.800075 0.869053
4 1 0.264005 0.131573 0.970243
29 1 0.130912 0.439813 0.971349
8 1 0.0366411 0.825555 0.962637
ITEM: TIMESTEP
1000000
ITEM: NUMBER OF ATOMS
60
ITEM: BOX BOUNDS pp pp pp
-2.5000000000000000e+01 2.5000000000000000e+01
-2.0000000000000000e+01 2.0000000000000000e+01
-2.0000000000000000e+01 2.0000000000000000e+01
ITEM: ATOMS id type xs ys zs
49 1 0.637728 0.129353 0.0378827
45 1 0.889334 0.312933 0.0316585
2 1 0.939715 0.498191 0.0119751
29 1 0.99692 0.0170487 0.0802928
39 1 0.749479 0.525832 0.145849
26 1 0.876456 0.47758 0.117816
58 1 0.334173 0.684175 0.145613
34 1 0.230991 0.711905 0.0704654
28 1 0.669298 0.122649 0.172907
11 1 0.320141 0.30973 0.190265
18 1 0.773343 0.456134 0.190553
17 1 0.219812 0.619029 0.206243
36 1 0.751533 0.905322 0.228141
9 1 0.954223 0.165855 0.310272
6 1 0.921351 0.569067 0.250374
5 1 0.242053 0.881641 0.264864
24 1 0.810889 0.97126 0.256929
56 1 0.776133 0.103256 0.345677
43 1 0.889914 0.1162 0.324252
33 1 0.0248597 0.503744 0.325138
27 1 0.750444 0.911392 0.367025
7 1 0.713328 0.374102 0.357382
21 1 0.271568 0.697037 0.388131
60 1 0.679576 0.925989 0.406489
8 1 0.300674 0.204643 0.486655
32 1 0.716416 0.191304 0.515545
35 1 0.0392466 0.297856 0.535126
22 1 0.950197 0.360765 0.539319
50 1 0.322925 0.759891 0.498453
51 1 0.285417 0.857632 0.588424
15 1 0.264813 0.0217806 0.564169
53 1 0.253308 0.205399 0.570216
41 1 0.986585 0.344612 0.605206
57 1 0.858648 0.0475045 0.608612
47 1 0.761963 0.157373 0.656127
42 1 0.726356 0.342875 0.670309
30 1 0.0790799 0.488376 0.645946
48 1 0.173071 0.509541 0.653941
31 1 0.846583 0.709968 0.67635
40 1 0.995303 0.832186 0.608334
37 1 0.645453 0.255119 0.787338
10 1 0.918772 0.351052 0.703298
38 1 0.114882 0.839726 0.693486
46 1 0.187323 0.0561871 0.828874
19 1 0.267365 0.0892917 0.800598
55 1 0.262444 0.364797 0.781303
4 1 0.982158 0.582186 0.823938
59 1 0.0989302 0.784554 0.784654
54 1 0.0810871 0.854426 0.839409
12 1 0.194263 0.211596 0.879647
23 1 0.802474 0.258366 0.841055
3 1 0.137323 0.339138 0.917036
25 1 0.769315 0.358526 0.904949
13 1 0.642824 0.531169 0.85293
52 1 0.740493 0.789976 0.858115
20 1 0.779676 0.866096 0.848894
1 1 0.981022 0.0398547 0.956363
44 1 0.360924 0.458309 0.928267
14 1 0.810102 0.593136 0.967519
16 1 0.313505 0.952911 0.890061
ITEM: TIMESTEP
2000000
ITEM: NUMBER OF ATOMS
60
ITEM: BOX BOUNDS pp pp pp
-2.5000000000000000e+01 2.5000000000000000e+01
-2.0000000000000000e+01 2.0000000000000000e+01
-2.0000000000000000e+01 2.0000000000000000e+01
ITEM: ATOMS id type xs ys zs
15 1 0.148856 0.0729093 0.977854
34 1 0.65659 0.144177 0.0280129
50 1 0.389503 0.53213 0.0483842
8 1 0.112739 0.671387 0.0384293
55 1 0.213267 0.656891 0.0970773
41 1 0.265 0.746048 0.0925429
35 1 0.2031 0.844175 0.0167182
56 1 0.949272 0.946552 0.0491924
48 1 0.0576259 0.929454 0.0216356
18 1 0.830022 0.974765 0.157168
54 1 0.055991 0.542063 0.100388
22 1 0.0267274 0.103783 0.166017
7 1 0.962717 0.165088 0.198008
24 1 0.703492 0.484002 0.161859
49 1 0.860139 0.549345 0.173925
20 1 0.761101 0.517414 0.211342
27 1 0.786193 0.735236 0.171692
39 1 0.0966201 0.775149 0.220431
13 1 0.0345405 0.289833 0.310209
9 1 0.245978 0.292444 0.219629
5 1 0.65436 0.245915 0.258772
53 1 0.940696 0.379671 0.229701
52 1 0.237228 0.0728067 0.430777
10 1 0.0926336 0.419956 0.374694
25 1 0.668903 0.570999 0.308097
45 1 0.90019 0.154806 0.416614
60 1 0.319164 0.347995 0.417155
23 1 0.926093 0.565542 0.473282
57 1 0.145155 0.723579 0.391282
14 1 0.927603 0.905218 0.369607
37 1 0.0236879 0.0385944 0.525876
58 1 0.33117 0.307785 0.508147
44 1 0.736755 0.571869 0.499168
36 1 0.830549 0.610986 0.501822
11 1 0.368187 0.0348094 0.589865
31 1 0.16689 0.99983 0.650109
40 1 0.773048 0.0258414 0.576326
12 1 0.122473 0.311667 0.687107
26 1 0.782747 0.332896 0.606414
1 1 0.70517 0.546129 0.673159
38 1 0.781193 0.671381 0.684574
43 1 0.837913 0.805053 0.638902
30 1 0.158065 0.693771 0.725568
46 1 0.00595376 0.925526 0.741377
6 1 0.0965161 0.861193 0.745522
3 1 0.750117 0.0347506 0.801471
19 1 0.977412 0.0176687 0.786933
21 1 0.786522 0.129266 0.836104
17 1 0.246179 0.23617 0.81243
2 1 0.994059 0.278717 0.81856
51 1 0.651421 0.411699 0.781801
16 1 0.0437385 0.657967 0.786678
4 1 0.307577 0.966267 0.77023
28 1 0.731924 0.0341139 0.898206
32 1 0.963059 0.647864 0.868944
59 1 0.719044 0.108051 0.980114
47 1 0.309122 0.272706 0.943476
33 1 0.00992897 0.536297 0.017391
29 1 0.226259 0.471262 0.96081
42 1 0.685064 0.517257 0.93784
ITEM: TIMESTEP
3000000
ITEM: NUMBER OF ATOMS
60
ITEM: BOX BOUNDS pp pp pp
-2.5000000000000000e+01 2.5000000000000000e+01
-2.0000000000000000e+01 2.0000000000000000e+01
-2.0000000000000000e+01 2.0000000000000000e+01
ITEM: ATOMS id type xs ys zs
51 1 0.055322 0.474985 0.0420577
21 1 0.19532 0.539708 0.10957
60 1 0.3624 0.484009 0.0869142
41 1 0.255211 0.693591 0.063039
37 1 0.15859 0.780586 0.0635773
32 1 0.999921 0.113131 0.15777
24 1 0.0464992 0.308473 0.166226
11 1 0.217602 0.247576 0.10078
52 1 0.0368434 0.459707 0.145192
6 1 0.928471 0.630462 0.103362
55 1 0.179597 0.683972 0.0910564
27 1 0.725551 0.742066 0.173216
23 1 0.823764 0.00798271 0.123511
56 1 0.823561 0.528186 0.187117
43 1 0.720844 0.306329 0.265031
16 1 0.31024 0.783617 0.264249
44 1 0.86746 0.156934 0.35931
26 1 0.204571 0.98514 0.343017
22 1 0.815749 0.990848 0.384957
15 1 0.308029 0.136015 0.411963
19 1 0.625669 0.215828 0.445128
58 1 0.893762 0.210419 0.434972
40 1 0.287355 0.389272 0.416954
18 1 0.669603 0.430162 0.387991
13 1 0.322429 0.529329 0.429822
8 1 0.903148 0.751824 0.367407
12 1 0.142538 0.767077 0.389748
49 1 0.951013 0.028628 0.485892
4 1 0.0367661 0.412752 0.485583
57 1 0.338668 0.360261 0.497217
39 1 0.0639091 0.0747173 0.505122
31 1 0.137388 0.171092 0.570558
36 1 0.950408 0.357095 0.584992
46 1 0.941026 0.890384 0.569626
9 1 0.252292 0.28221 0.638401
20 1 0.0184425 0.277052 0.627803
17 1 0.137125 0.467992 0.655025
30 1 0.836255 0.556491 0.681505
28 1 0.0669905 0.82688 0.58632
7 1 0.926699 0.0683186 0.689711
38 1 0.949536 0.429803 0.771126
1 1 0.0969518 0.502951 0.730266
33 1 0.173916 0.858023 0.766765
48 1 1.00046 0.0162063 0.777219
29 1 0.0466393 0.0986947 0.854547
45 1 0.931575 0.165817 0.801179
53 1 0.304555 0.531014 0.798414
3 1 0.0469305 0.62728 0.838454
10 1 0.661344 0.815512 0.831434
42 1 0.966344 0.875228 0.827655
25 1 0.691604 0.972882 0.828822
14 1 0.961221 0.59597 0.874761
50 1 0.273239 0.857171 0.882828
59 1 0.120645 0.944816 0.836223
54 1 0.953094 0.247902 0.908635
35 1 0.169438 0.447925 0.956533
47 1 0.771624 0.390967 0.966027
2 1 0.0612107 0.838076 0.997767
34 1 0.175919 0.922905 0.990497
5 1 0.742759 0.000559468 0.895464
ITEM: TIMESTEP
4000000
ITEM: NUMBER OF ATOMS
60
ITEM: BOX BOUNDS pp pp pp
-2.5000000000000000e+01 2.5000000000000000e+01
-2.0000000000000000e+01 2.0000000000000000e+01
-2.0000000000000000e+01 2.0000000000000000e+01
ITEM: ATOMS id type xs ys zs
11 1 0.944918 0.207057 0.0635364
56 1 0.152771 0.267198 0.101172
8 1 0.236162 0.458075 0.00516696
36 1 0.104601 0.754845 0.030788
9 1 0.012782 0.0848444 0.0773899
25 1 0.738588 0.183432 0.16532
32 1 0.25371 0.292595 0.168233
2 1 0.707983 0.511803 0.112542
4 1 0.368296 0.175698 0.183355
14 1 0.323458 0.291879 0.208678
24 1 0.962656 0.295739 0.21074
28 1 0.143115 0.453417 0.169939
39 1 0.915956 0.55937 0.186522
30 1 0.00665497 0.566434 0.247641
58 1 0.775351 0.810408 0.164697
43 1 0.243828 0.329763 0.272574
54 1 0.872403 0.560291 0.287602
19 1 0.198133 0.852771 0.240489
13 1 0.814015 0.997606 0.277807
53 1 0.655761 0.0312518 0.301096
38 1 0.812836 0.166307 0.317015
48 1 0.670022 0.656157 0.326568
59 1 0.717941 0.848729 0.352996
6 1 0.275815 0.0168614 0.450014
31 1 0.677561 0.768161 0.418612
60 1 0.0536433 0.0748002 0.505713
5 1 0.244438 0.191443 0.470334
34 1 0.372514 0.695383 0.481277
18 1 0.972022 0.859797 0.5238
45 1 0.24296 0.939408 0.509974
40 1 0.332607 0.372757 0.549091
10 1 0.920561 0.758973 0.572775
52 1 0.0387008 0.931962 0.518971
46 1 0.641952 0.0158158 0.661968
35 1 0.272754 0.694876 0.673105
15 1 0.787396 0.912572 0.636384
47 1 0.88339 0.148229 0.696107
33 1 0.387572 0.253436 0.765467
29 1 0.81171 0.549297 0.748148
1 1 0.6982 0.685476 0.799107
20 1 0.910245 0.820419 0.678652
44 1 0.918052 0.133329 0.809534
17 1 0.753339 0.199842 0.837098
7 1 0.108912 0.314603 0.72918
41 1 0.217984 0.535412 0.831856
21 1 0.0739546 0.502884 0.770669
12 1 0.345159 0.633558 0.838152
27 1 0.692397 0.860594 0.822801
55 1 0.296702 0.00133865 0.833892
22 1 0.786193 0.311786 0.852942
16 1 0.0371705 0.429005 0.901872
42 1 0.652801 0.479585 0.889625
23 1 0.806801 0.670376 0.85692
51 1 0.029835 0.712255 0.872662
49 1 0.268901 0.736814 0.823723
26 1 0.239098 0.00169374 0.959774
57 1 0.284724 0.125037 0.955821
37 1 0.366351 0.314746 0.947313
3 1 0.956222 0.317864 -0.00368505
50 1 0.735095 0.701197 0.9523
ITEM: TIMESTEP
5000000
ITEM: NUMBER OF ATOMS
60
ITEM: BOX BOUNDS pp pp pp
-2.5000000000000000e+01 2.5000000000000000e+01
-2.0000000000000000e+01 2.0000000000000000e+01
-2.0000000000000000e+01 2.0000000000000000e+01
ITEM: ATOMS id type xs ys zs
36 1 0.662897 0.0203437 0.0433267
4 1 0.658351 0.257838 0.0169213
1 1 0.63851 0.616 0.0470111
2 1 0.970915 0.581272 0.0229247
18 1 0.0743532 0.688003 0.990443
40 1 0.213896 0.745136 0.00650856
26 1 0.975581 0.82523 0.0427987
60 1 0.168478 0.921877 0.0528961
56 1 0.380841 0.0950704 0.133569
52 1 0.0392951 0.262849 0.114534
37 1 0.738107 0.265076 0.153522
15 1 0.972876 0.327393 0.156654
59 1 0.876973 0.398696 0.119751
12 1 0.00644632 0.478611 0.135083
19 1 0.146913 0.540755 0.122533
28 1 0.173062 0.835002 0.122233
50 1 0.267501 0.0419817 0.255428
22 1 0.031731 0.573776 0.238063
11 1 0.90777 0.516474 0.192553
6 1 0.0571807 0.897868 0.193152
32 1 0.66474 0.917652 0.161748
55 1 0.352642 0.997108 0.205514
13 1 0.722913 0.489423 0.235621
44 1 0.919932 0.0527291 0.370789
42 1 0.769142 0.296365 0.308237
39 1 0.155095 0.598302 0.326218
54 1 0.0505139 0.778483 0.31228
20 1 0.0946828 0.940874 0.374637
43 1 0.350007 0.97606 0.359185
23 1 0.868618 0.916029 0.323157
9 1 0.0781363 0.0399506 0.397443
25 1 0.158793 0.142928 0.433467
29 1 0.273858 0.324805 0.420898
33 1 0.777033 0.328317 0.46866
8 1 0.287359 0.910378 0.409953
16 1 0.752819 0.846223 0.423555
21 1 0.296707 0.143472 0.467447
17 1 0.903006 0.37478 0.443157
47 1 0.313497 0.522543 0.501874
34 1 0.973204 0.611528 0.515192
46 1 0.63505 0.194571 0.598268
3 1 0.780697 0.304487 0.586336
24 1 0.0781238 0.774292 0.630912
48 1 0.829475 0.547111 0.702832
35 1 0.347584 0.581827 0.650665
27 1 0.1828 0.857644 0.660802
14 1 0.359924 0.834011 0.5642
45 1 0.659991 0.844473 0.651917
31 1 0.0226332 0.677231 0.685307
58 1 0.633067 0.766866 0.693298
51 1 0.0700309 0.288435 0.82429
7 1 0.942774 0.553748 0.875349
49 1 0.285288 0.822458 0.78839
57 1 0.789575 0.92855 0.755069
5 1 0.0927203 0.948224 0.757579
38 1 0.191106 0.696888 0.893319
10 1 0.145157 0.0160932 0.933622
41 1 0.94051 0.379083 0.0226905
53 1 0.156469 0.822236 0.981943
30 1 0.271543 0.834314 0.981307
ITEM: TIMESTEP
6000000
ITEM: NUMBER OF ATOMS
60
ITEM: BOX BOUNDS pp pp pp
-2.5000000000000000e+01 2.5000000000000000e+01
-2.0000000000000000e+01 2.0000000000000000e+01
-2.0000000000000000e+01 2.0000000000000000e+01
ITEM: ATOMS id type xs ys zs
18 1 0.89595 0.0973286 0.0685587
34 1 0.729498 0.340647 0.0147214
55 1 0.0856064 0.404475 0.0402562
49 1 0.802274 0.723406 0.97852
19 1 0.819237 0.835171 0.00573698
53 1 0.0824572 0.0533023 0.144963
48 1 0.773915 0.00456364 0.0780933
4 1 0.178128 0.205959 0.120483
58 1 0.974642 0.217662 0.0998631
50 1 0.862411 0.534872 0.169912
15 1 0.375759 0.109873 0.167812
7 1 0.0313126 0.350506 0.196356
59 1 0.335919 0.541412 0.249783
38 1 0.397425 0.55691 0.173243
12 1 0.807412 0.580207 0.210532
9 1 0.7416 0.670864 0.199138
1 1 0.686131 0.724353 0.144828
11 1 0.926668 0.0680429 0.308515
31 1 0.690592 0.226801 0.274952
42 1 0.0892731 0.0435181 0.36664
13 1 0.923457 0.394247 0.340016
41 1 0.915601 0.58818 0.325379
8 1 0.233432 0.78589 0.362008
3 1 0.0910329 0.10206 0.439796
20 1 0.190443 0.264494 0.400575
26 1 0.961795 0.370949 0.410941
25 1 0.7407 0.372845 0.459055
47 1 0.0594772 0.875487 0.434743
56 1 0.675262 0.916201 0.409671
37 1 0.813845 0.852107 0.459543
51 1 0.100033 0.969876 0.421682
44 1 0.947701 0.10476 0.474395
60 1 0.131939 0.342308 0.46387
23 1 0.226141 0.37048 0.49956
45 1 0.836591 0.341499 0.501301
39 1 0.959271 0.170549 0.579961
52 1 0.204864 0.23449 0.588033
2 1 0.680154 0.493815 0.612308
14 1 0.192682 0.549682 0.581127
6 1 0.90091 0.539401 0.511747
33 1 0.150665 0.64248 0.583155
46 1 0.326748 0.723624 0.55326
27 1 0.0232965 0.10602 0.612676
22 1 0.122907 0.25426 0.691371
35 1 0.910884 0.347195 0.704486
30 1 0.0491039 0.470113 0.678618
36 1 0.0981013 0.58379 0.676158
16 1 0.26051 0.510448 0.638058
24 1 0.760214 0.561811 0.691255
29 1 0.890674 0.894634 0.661239
5 1 0.992599 0.0513647 0.695493
21 1 0.298449 0.454622 0.789776
43 1 0.0986569 0.889013 0.760802
32 1 0.753062 0.84811 0.764768
17 1 0.321876 0.16997 0.915118
54 1 0.913781 0.607776 0.851133
10 1 0.327492 0.928552 0.886188
40 1 0.00524188 0.964349 0.906716
28 1 0.255313 0.183552 0.980712
57 1 0.270371 0.817365 0.987524
ITEM: TIMESTEP
7000000
ITEM: NUMBER OF ATOMS
60
ITEM: BOX BOUNDS pp pp pp
-2.5000000000000000e+01 2.5000000000000000e+01
-2.0000000000000000e+01 2.0000000000000000e+01
-2.0000000000000000e+01 2.0000000000000000e+01
ITEM: ATOMS id type xs ys zs
6 1 0.224597 0.0643976 0.00795274
56 1 0.802909 0.0288114 0.0389509
3 1 0.173742 0.24692 0.0835412
20 1 0.9518 0.680531 0.0546192
50 1 0.176665 0.744689 0.0689502
9 1 0.312245 0.920475 1.0018
12 1 0.218567 0.925207 0.0207076
8 1 0.718386 0.991036 0.0672809
4 1 0.308503 0.378823 0.154854
58 1 0.0644546 0.524538 0.127964
49 1 0.757777 0.535517 0.12373
51 1 0.278457 0.639699 0.0827969
52 1 0.873617 0.794891 0.0928798
14 1 0.890148 0.502295 0.185899
30 1 0.909072 0.707326 0.244907
53 1 0.125887 0.843855 0.22679
34 1 0.0906621 0.920988 0.162307
57 1 0.171551 0.12606 0.233177
10 1 0.991775 0.139393 0.268033
45 1 0.385445 0.294717 0.287396
35 1 0.0567755 0.327484 0.272722
42 1 0.880147 0.438843 0.271965
25 1 0.0381164 0.643779 0.290716
16 1 0.869047 0.0565654 0.315095
44 1 0.0851414 0.78721 0.274109
59 1 0.966584 0.66263 0.431477
36 1 0.292485 0.0449954 0.455994
13 1 0.336393 0.296228 0.506099
32 1 0.249259 0.604564 0.413687
21 1 0.0539024 0.848123 0.48133
60 1 0.260124 0.849051 0.475789
54 1 0.921932 0.894896 0.456649
28 1 0.773069 0.16733 0.56265
38 1 0.200171 0.24502 0.548769
23 1 0.312665 0.199605 0.535276
1 1 0.622211 0.321942 0.513571
22 1 0.15652 0.493075 0.598631
31 1 0.329718 0.565322 0.566318
48 1 0.801091 0.223839 0.705217
47 1 0.129949 0.333889 0.672059
39 1 0.742432 0.357505 0.670242
19 1 0.243827 0.82384 0.622762
33 1 0.109642 0.0536625 0.707267
55 1 0.858813 0.0093435 0.756744
18 1 0.338768 0.0820136 0.70525
43 1 0.84756 0.156327 0.769019
40 1 0.92854 0.757395 0.750653
24 1 0.0291695 0.353889 0.804054
17 1 0.950689 0.533736 0.810093
11 1 0.768797 0.0534976 0.864845
7 1 0.637957 0.190404 0.943826
41 1 0.344478 0.587511 0.841824
15 1 0.192424 0.857561 0.844944
26 1 0.871073 0.858978 0.896682
29 1 0.109658 0.114907 0.966732
46 1 0.378826 0.108457 0.974844
5 1 0.0152696 0.323371 0.986155
27 1 0.0243516 0.434142 0.945544
37 1 0.324218 0.430267 0.970503
2 1 0.672149 0.921166 1.00583
ITEM: TIMESTEP
8000000
ITEM: NUMBER OF ATOMS
60
ITEM: BOX BOUNDS pp pp pp
-2.5000000000000000e+01 2.5000000000000000e+01
-2.0000000000000000e+01 2.0000000000000000e+01
-2.0000000000000000e+01 2.0000000000000000e+01
ITEM: ATOMS id type xs ys zs
38 1 0.315251 0.11105 0.0547059
2 1 0.22744 0.176165 0.0324602
59 1 0.719558 0.373096 0.0611917
4 1 0.163832 0.661778 0.101635
20 1 0.646247 0.666497 0.0260317
24 1 0.253921 0.867669 0.0657738
18 1 0.152922 0.125554 0.155434
26 1 0.0753171 0.700243 0.149243
17 1 0.624397 0.00390261 0.152329
47 1 0.83706 0.208256 0.203834
19 1 0.164204 0.0487873 0.299135
41 1 0.834544 0.133863 0.314841
6 1 0.649554 0.476301 0.264845
29 1 0.889114 0.583541 0.257107
48 1 0.126071 0.606611 0.307592
30 1 0.764712 0.565843 0.298292
46 1 0.896065 0.773694 0.254458
40 1 0.363711 0.550067 0.285124
51 1 0.952652 0.775259 0.308734
31 1 0.00412074 0.785582 0.439872
23 1 0.882237 0.0727809 0.447648
58 1 0.181877 0.0617859 0.396696
8 1 0.759908 0.0946965 0.464886
49 1 0.166252 0.256473 0.46916
28 1 0.979665 0.442817 0.40725
9 1 0.911689 0.467651 0.394808
34 1 0.94769 0.577088 0.426918
1 1 0.168283 0.714048 0.430867
54 1 0.870637 0.671772 0.502242
39 1 0.963787 0.863855 0.398641
33 1 0.799528 0.987499 0.409349
13 1 0.269578 0.653542 0.527323
5 1 0.772746 0.157311 0.522914
7 1 0.952478 0.246142 0.594755
52 1 0.338339 0.578903 0.590936
10 1 0.810176 0.812219 0.575213
15 1 0.664358 0.124559 0.733203
60 1 0.986361 0.12859 0.609648
50 1 0.299342 0.165861 0.642878
56 1 0.133061 0.344704 0.666782
3 1 0.916846 0.672152 0.681674
44 1 0.244447 0.75555 0.638201
43 1 0.204301 0.910375 0.673267
37 1 0.639105 0.704976 0.722523
14 1 0.75862 0.882712 0.713539
53 1 0.148296 0.0187595 0.779034
55 1 0.695508 0.0965219 0.854635
21 1 0.849593 0.345875 0.862974
25 1 0.300936 0.714923 0.786146
57 1 0.279232 0.321315 0.8886
22 1 0.364082 0.30396 0.90691
35 1 0.918472 0.458663 0.880296
11 1 0.796079 0.739673 0.879863
36 1 0.12587 0.767861 0.911788
42 1 0.274408 0.685985 0.977165
45 1 0.966634 0.659463 0.933948
32 1 0.288574 0.778533 0.896192
27 1 0.937843 0.806055 0.00970388
12 1 0.906528 0.87689 0.953412
16 1 0.158316 0.9669 0.918228
ITEM: TIMESTEP
9000000
ITEM: NUMBER OF ATOMS
60
ITEM: BOX BOUNDS pp pp pp
-2.5000000000000000e+01 2.5000000000000000e+01
-2.0000000000000000e+01 2.0000000000000000e+01
-2.0000000000000000e+01 2.0000000000000000e+01
ITEM: ATOMS id type xs ys zs
34 1 0.9248 0.0425851 0.0447667
33 1 0.923788 0.282113 0.0330895
17 1 0.741129 0.402425 0.991458
14 1 0.69694 0.602336 0.0619252
12 1 0.013964 0.798708 0.0483632
2 1 0.328558 0.814847 0.045321
39 1 0.830447 0.994353 0.051143
13 1 0.00736307 0.0942364 0.142646
32 1 0.152408 0.0133517 0.125878
37 1 0.691596 0.1151 0.100705
52 1 0.268902 0.29253 0.0477346
4 1 0.193128 0.451482 0.110046
38 1 0.693298 0.419663 0.151212
41 1 0.0742152 0.636891 0.095727
59 1 0.82909 0.836525 0.0697814
18 1 0.746527 0.0549141 0.216847
6 1 0.799764 0.329994 0.197042
9 1 0.92482 0.435588 0.195394
60 1 0.0189052 0.441639 0.208569
28 1 0.741142 0.669213 0.207394
44 1 0.0804355 0.75556 0.198809
55 1 0.208983 0.787904 0.172285
45 1 0.186237 0.469872 0.287624
21 1 0.775837 0.582827 0.293077
35 1 0.715013 0.660044 0.33272
22 1 0.853201 0.684107 0.256332
25 1 0.925314 0.910596 0.250898
5 1 0.169198 0.646047 0.351798
46 1 0.810132 0.0185204 0.444038
47 1 0.92508 0.269784 0.427359
19 1 0.770843 0.458127 0.426204
51 1 0.641902 0.789938 0.440544
16 1 0.0940314 0.0149246 0.440728
29 1 0.0898935 0.262693 0.552065
1 1 0.70348 0.363497 0.494224
40 1 0.254903 0.210773 0.590813
49 1 0.834637 0.116891 0.571503
7 1 0.92154 0.266206 0.586168
56 1 0.87961 0.338192 0.599675
31 1 0.337656 0.870892 0.600418
58 1 0.80435 0.943852 0.538106
50 1 0.066364 0.0322855 0.648381
20 1 0.625509 0.329186 0.673314
42 1 0.0443774 0.430271 0.636433
43 1 0.839457 0.86135 0.671683
30 1 0.81125 0.944345 0.64689
54 1 0.332389 0.166272 0.693267
27 1 0.715089 0.154054 0.739053
26 1 0.281757 0.458169 0.76938
10 1 0.00936219 0.803252 0.72145
3 1 0.292202 0.820659 0.78432
53 1 0.795891 0.375299 0.780816
23 1 0.247578 0.74505 0.753598
36 1 0.193767 -0.000696597 0.834271
24 1 0.751869 0.336217 0.897858
15 1 0.0273978 0.60575 0.858538
8 1 0.0993589 0.656675 0.924837
11 1 0.985703 0.997039 0.93544
57 1 0.0564173 0.322721 0.925947
48 1 0.766541 0.672296 0.922486
ITEM: TIMESTEP
10000000
ITEM: NUMBER OF ATOMS
60
ITEM: BOX BOUNDS pp pp pp
-2.5000000000000000e+01 2.5000000000000000e+01
-2.0000000000000000e+01 2.0000000000000000e+01
-2.0000000000000000e+01 2.0000000000000000e+01
ITEM: ATOMS id type xs ys zs
37 1 0.701181 0.122453 0.961546
9 1 0.907028 0.415597 0.0376599
14 1 0.252386 0.462071 0.0319479
35 1 0.726182 0.390775 0.0835491
56 1 0.875981 0.829221 0.998313
20 1 0.0814216 0.822859 0.996408
34 1 0.328042 0.92044 0.0366061
12 1 0.0828784 0.00900869 0.0933627
25 1 0.155122 0.326065 0.110503
38 1 0.340657 0.391531 0.146169
1 1 0.380425 0.929647 0.0913111
10 1 0.0464817 0.0850561 0.180056
48 1 0.961168 0.193149 0.115796
19 1 0.0974596 0.405683 0.23077
8 1 0.299499 0.961651 0.224759
30 1 0.0290702 0.172421 0.285096
26 1 0.939588 0.123234 0.310242
17 1 0.174544 0.145496 0.221745
13 1 0.996616 0.135246 0.366984
54 1 0.669497 0.18182 0.288572
11 1 0.823915 0.270503 0.383892
3 1 0.713808 0.338329 0.363237
42 1 0.254937 0.682831 0.361158
27 1 0.187721 0.862358 0.302985
36 1 0.23709 0.821478 0.368654
4 1 0.0145385 0.0538542 0.376409
43 1 0.200942 0.0208918 0.436042
51 1 0.298562 0.187373 0.461591
45 1 0.188487 0.44906 0.472566
21 1 0.762176 0.415803 0.368355
52 1 0.8091 0.50293 0.504982
32 1 0.888044 0.612031 0.453983
41 1 0.668786 0.742743 0.388684
31 1 0.0315054 0.128056 0.550127
24 1 0.751472 0.358449 0.448094
15 1 0.948366 0.853673 0.497891
22 1 0.639228 0.964883 0.485273
46 1 0.1304 0.212769 0.541031
50 1 0.625245 0.539734 0.53089
53 1 0.225936 0.582105 0.611109
29 1 0.112274 0.648823 0.658253
47 1 0.265473 0.14081 0.673979
16 1 0.96948 0.126803 0.64587
49 1 0.061353 0.312433 0.664955
55 1 0.656458 0.338863 0.660125
59 1 0.886475 0.333693 0.65616
2 1 0.803702 0.586506 0.60995
60 1 0.331968 0.701392 0.662294
58 1 0.383186 0.353513 0.726491
5 1 0.233735 0.832817 0.737416
39 1 0.789116 0.837615 0.701238
28 1 0.185798 0.0465959 0.739408
18 1 0.296081 0.234468 0.833088
40 1 0.240682 0.326298 0.819809
23 1 0.0415582 0.411125 0.830734
44 1 0.261527 0.893609 0.800398
33 1 0.24824 0.478962 0.817888
57 1 0.334651 0.746495 0.86818
7 1 0.97188 0.156787 0.943386
6 1 0.131482 0.949753 0.977322
ITEM: TIMESTEP
0
ITEM: NUMBER OF ATOMS
60
ITEM: BOX BOUNDS pp pp pp
-2.5000000000000000e+01 2.5000000000000000e+01
-2.0000000000000000e+01 2.0000000000000000e+01
-2.0000000000000000e+01 2.0000000000000000e+01
ITEM: ATOMS id type xs ys zs
9 1 0.907028 0.415597 0.0376599
14 1 0.252386 0.462071 0.0319479
34 1 0.328042 0.92044 0.0366061
12 1 0.0828784 0.00900869 0.0933627
48 1 0.961168 0.193149 0.115796
25 1 0.155122 0.326065 0.110503
38 1 0.340657 0.391531 0.146169
35 1 0.726182 0.390775 0.0835491
1 1 0.380425 0.929647 0.0913111
10 1 0.0464817 0.0850561 0.180056
17 1 0.174544 0.145496 0.221745
8 1 0.299499 0.961651 0.224759
30 1 0.0290702 0.172421 0.285096
54 1 0.669497 0.18182 0.288572
19 1 0.0974596 0.405683 0.23077
27 1 0.187721 0.862358 0.302985
4 1 0.0145385 0.0538542 0.376409
26 1 0.939588 0.123234 0.310242
13 1 0.996616 0.135246 0.366984
11 1 0.823915 0.270503 0.383892
3 1 0.713808 0.338329 0.363237
21 1 0.762176 0.415803 0.368355
42 1 0.254937 0.682831 0.361158
36 1 0.23709 0.821478 0.368654
43 1 0.200942 0.0208918 0.436042
24 1 0.751472 0.358449 0.448094
32 1 0.888044 0.612031 0.453983
41 1 0.668786 0.742743 0.388684
51 1 0.298562 0.187373 0.461591
45 1 0.188487 0.44906 0.472566
52 1 0.8091 0.50293 0.504982
50 1 0.625245 0.539734 0.53089
15 1 0.948366 0.853673 0.497891
22 1 0.639228 0.964883 0.485273
31 1 0.0315054 0.128056 0.550127
46 1 0.1304 0.212769 0.541031
53 1 0.225936 0.582105 0.611109
2 1 0.803702 0.586506 0.60995
47 1 0.265473 0.14081 0.673979
16 1 0.96948 0.126803 0.64587
49 1 0.061353 0.312433 0.664955
55 1 0.656458 0.338863 0.660125
59 1 0.886475 0.333693 0.65616
29 1 0.112274 0.648823 0.658253
60 1 0.331968 0.701392 0.662294
28 1 0.185798 0.0465959 0.739408
58 1 0.383186 0.353513 0.726491
5 1 0.233735 0.832817 0.737416
39 1 0.789116 0.837615 0.701238
18 1 0.296081 0.234468 0.833088
40 1 0.240682 0.326298 0.819809
23 1 0.0415582 0.411125 0.830734
33 1 0.24824 0.478962 0.817888
44 1 0.261527 0.893609 0.800398
57 1 0.334651 0.746495 0.86818
37 1 0.701181 0.122453 0.961546
7 1 0.97188 0.156787 0.943386
20 1 0.0814216 0.822859 0.996408
56 1 0.875981 0.829221 0.998313
6 1 0.131482 0.949753 0.977322
ITEM: TIMESTEP
1000000
ITEM: NUMBER OF ATOMS
60
ITEM: BOX BOUNDS pp pp pp
-2.5000000000000000e+01 2.5000000000000000e+01
-2.0000000000000000e+01 2.0000000000000000e+01
-2.0000000000000000e+01 2.0000000000000000e+01
ITEM: ATOMS id type xs ys zs
33 1 0.150677 0.190168 -0.000498284
28 1 0.243033 0.215777 0.057559
22 1 0.293808 0.413217 0.0322606
2 1 0.22431 0.468981 0.0206287
13 1 0.26964 0.66614 0.0722787
3 1 0.897533 0.762905 0.0311795
50 1 0.000180274 0.0577658 0.0694132
31 1 0.212224 0.400117 0.117035
57 1 0.647731 0.435468 0.0851805
4 1 0.995295 0.123509 0.155837
17 1 0.677202 0.49079 0.1733
36 1 0.336886 0.64631 0.160149
11 1 0.674993 0.623089 0.178235
6 1 0.905582 0.776493 0.246696
59 1 0.131851 0.423368 0.248616
9 1 0.219559 0.862111 0.239157
37 1 0.144993 0.238991 0.320767
25 1 0.917525 0.387475 0.374487
39 1 0.303073 0.47766 0.350006
30 1 0.377152 0.582385 0.394994
21 1 0.10557 0.871949 0.377251
10 1 0.320483 0.949835 0.337231
14 1 0.346839 0.0586577 0.376565
55 1 0.0981631 0.0816756 0.379114
34 1 0.002754 0.649458 0.468895
45 1 0.912896 0.820281 0.38452
27 1 0.303098 0.544214 0.481789
41 1 0.133035 0.982444 0.479913
24 1 0.249496 0.997765 0.52796
1 1 0.66936 0.0908907 0.598717
40 1 0.84674 0.174929 0.572076
16 1 0.758361 0.239278 0.609222
26 1 0.169518 0.475854 0.594643
44 1 0.15091 0.663595 0.582692
54 1 0.284256 0.744057 0.59328
20 1 0.154892 0.233626 0.631755
47 1 0.796121 0.161399 0.640587
46 1 0.0505265 0.659847 0.652728
29 1 0.968085 0.696048 0.625535
52 1 0.310668 0.75183 0.680604
23 1 0.129661 0.108444 0.716285
43 1 0.183166 0.373179 0.756195
8 1 0.347765 0.942483 0.743412
18 1 0.307943 0.0836067 0.733505
58 1 0.288495 0.438403 0.832693
38 1 0.172232 0.643406 0.764032
19 1 0.951129 0.688618 0.783857
53 1 0.829296 0.810822 0.751845
7 1 0.895948 0.985612 0.810661
51 1 0.336786 0.294952 0.894067
56 1 0.615136 0.339826 0.922495
35 1 0.318568 0.689397 0.913424
15 1 0.0196658 0.772196 0.851139
60 1 0.818068 0.697012 0.893102
32 1 0.797376 0.918007 0.907489
42 1 0.671315 0.0245505 0.958505
5 1 0.133997 0.514751 0.958223
48 1 0.857855 0.586372 0.926946
12 1 0.0293926 0.729592 -0.011238
49 1 0.212507 0.999094 0.0143056
ITEM: TIMESTEP
2000000
ITEM: NUMBER OF ATOMS
60
ITEM: BOX BOUNDS pp pp pp
-2.5000000000000000e+01 2.5000000000000000e+01
-2.0000000000000000e+01 2.0000000000000000e+01
-2.0000000000000000e+01 2.0000000000000000e+01
ITEM: ATOMS id type xs ys zs
6 1 0.796905 0.378057 0.0585832
37 1 0.795812 0.487308 0.0561668
17 1 0.229645 0.59728 0.0527664
9 1 0.881964 0.176425 0.116425
19 1 -0.00476156 0.716214 0.145252
29 1 0.688163 0.758768 0.150869
26 1 0.883701 0.082811 0.160019
21 1 0.15086 0.379006 0.209474
40 1 0.157951 0.872157 0.231975
12 1 0.0334147 0.945218 0.171056
3 1 0.865118 0.965957 0.173195
24 1 0.211107 0.469977 0.285625
14 1 0.0690913 0.879267 0.286562
20 1 0.67579 0.814155 0.216445
5 1 0.784787 0.0166546 0.319774
7 1 0.873035 1.00119 0.391123
23 1 0.836265 0.193856 0.343559
38 1 0.325372 0.504846 0.341682
10 1 0.255636 0.626882 0.37018
44 1 0.269067 0.308537 0.372338
11 1 0.0475749 0.358995 0.453282
47 1 0.310336 0.645859 0.474597
16 1 0.718327 0.832971 0.42397
43 1 0.0365321 0.9259 0.497167
2 1 0.985434 0.963046 0.363679
33 1 0.875123 0.648373 0.45226
27 1 0.297556 0.769285 0.510264
39 1 0.960952 0.954741 0.497301
22 1 0.196307 0.263122 0.6035
1 1 0.0390688 0.401744 0.531639
4 1 0.303953 0.554836 0.593504
53 1 0.322585 0.0905328 0.720449
28 1 0.996267 0.0177515 0.627543
41 1 0.732833 0.273831 0.682848
50 1 0.78232 0.35754 0.614651
36 1 0.100163 0.416906 0.697422
46 1 0.0356469 0.52266 0.675027
57 1 0.0958391 0.700738 0.659102
55 1 0.970192 0.907782 0.633309
31 1 0.0850027 0.183104 0.747402
54 1 0.375893 0.330084 0.698221
18 1 0.929158 0.69172 0.722955
15 1 0.0101737 0.13332 0.744574
8 1 0.985163 0.222937 0.817023
49 1 0.352474 0.396877 0.829898
59 1 0.687623 0.550736 0.848592
35 1 0.851816 0.519686 0.792766
51 1 0.670914 0.870444 0.835623
30 1 0.845567 0.363475 0.895681
52 1 0.0634046 0.538564 0.846926
56 1 0.762134 0.61482 0.879966
45 1 0.13447 0.941789 0.860405
60 1 0.0476729 0.0153488 0.913953